# vtk DataFile Version 3.0
Dataset convertido do arquivo q128.out                                                                        
ASCII

DATASET UNSTRUCTURED_GRID
POINTS     16641 float
    0.00000E+00    0.10000E+01    0.00000E+00
    0.78125E-02    0.10000E+01    0.00000E+00
    0.15625E-01    0.10000E+01    0.00000E+00
    0.23438E-01    0.10000E+01    0.00000E+00
    0.31250E-01    0.10000E+01    0.00000E+00
    0.39062E-01    0.10000E+01    0.00000E+00
    0.46875E-01    0.10000E+01    0.00000E+00
    0.54688E-01    0.10000E+01    0.00000E+00
    0.62500E-01    0.10000E+01    0.00000E+00
    0.70312E-01    0.10000E+01    0.00000E+00
    0.78125E-01    0.10000E+01    0.00000E+00
    0.85938E-01    0.10000E+01    0.00000E+00
    0.93750E-01    0.10000E+01    0.00000E+00
    0.10156E+00    0.10000E+01    0.00000E+00
    0.10938E+00    0.10000E+01    0.00000E+00
    0.11719E+00    0.10000E+01    0.00000E+00
    0.12500E+00    0.10000E+01    0.00000E+00
    0.13281E+00    0.10000E+01    0.00000E+00
    0.14062E+00    0.10000E+01    0.00000E+00
    0.14844E+00    0.10000E+01    0.00000E+00
    0.15625E+00    0.10000E+01    0.00000E+00
    0.16406E+00    0.10000E+01    0.00000E+00
    0.17188E+00    0.10000E+01    0.00000E+00
    0.17969E+00    0.10000E+01    0.00000E+00
    0.18750E+00    0.10000E+01    0.00000E+00
    0.19531E+00    0.10000E+01    0.00000E+00
    0.20312E+00    0.10000E+01    0.00000E+00
    0.21094E+00    0.10000E+01    0.00000E+00
    0.21875E+00    0.10000E+01    0.00000E+00
    0.22656E+00    0.10000E+01    0.00000E+00
    0.23438E+00    0.10000E+01    0.00000E+00
    0.24219E+00    0.10000E+01    0.00000E+00
    0.25000E+00    0.10000E+01    0.00000E+00
    0.25781E+00    0.10000E+01    0.00000E+00
    0.26562E+00    0.10000E+01    0.00000E+00
    0.27344E+00    0.10000E+01    0.00000E+00
    0.28125E+00    0.10000E+01    0.00000E+00
    0.28906E+00    0.10000E+01    0.00000E+00
    0.29688E+00    0.10000E+01    0.00000E+00
    0.30469E+00    0.10000E+01    0.00000E+00
    0.31250E+00    0.10000E+01    0.00000E+00
    0.32031E+00    0.10000E+01    0.00000E+00
    0.32812E+00    0.10000E+01    0.00000E+00
    0.33594E+00    0.10000E+01    0.00000E+00
    0.34375E+00    0.10000E+01    0.00000E+00
    0.35156E+00    0.10000E+01    0.00000E+00
    0.35938E+00    0.10000E+01    0.00000E+00
    0.36719E+00    0.10000E+01    0.00000E+00
    0.37500E+00    0.10000E+01    0.00000E+00
    0.38281E+00    0.10000E+01    0.00000E+00
    0.39062E+00    0.10000E+01    0.00000E+00
    0.39844E+00    0.10000E+01    0.00000E+00
    0.40625E+00    0.10000E+01    0.00000E+00
    0.41406E+00    0.10000E+01    0.00000E+00
    0.42188E+00    0.10000E+01    0.00000E+00
    0.42969E+00    0.10000E+01    0.00000E+00
    0.43750E+00    0.10000E+01    0.00000E+00
    0.44531E+00    0.10000E+01    0.00000E+00
    0.45312E+00    0.10000E+01    0.00000E+00
    0.46094E+00    0.10000E+01    0.00000E+00
    0.46875E+00    0.10000E+01    0.00000E+00
    0.47656E+00    0.10000E+01    0.00000E+00
    0.48438E+00    0.10000E+01    0.00000E+00
    0.49219E+00    0.10000E+01    0.00000E+00
    0.50000E+00    0.10000E+01    0.00000E+00
    0.50781E+00    0.10000E+01    0.00000E+00
    0.51562E+00    0.10000E+01    0.00000E+00
    0.52344E+00    0.10000E+01    0.00000E+00
    0.53125E+00    0.10000E+01    0.00000E+00
    0.53906E+00    0.10000E+01    0.00000E+00
    0.54688E+00    0.10000E+01    0.00000E+00
    0.55469E+00    0.10000E+01    0.00000E+00
    0.56250E+00    0.10000E+01    0.00000E+00
    0.57031E+00    0.10000E+01    0.00000E+00
    0.57812E+00    0.10000E+01    0.00000E+00
    0.58594E+00    0.10000E+01    0.00000E+00
    0.59375E+00    0.10000E+01    0.00000E+00
    0.60156E+00    0.10000E+01    0.00000E+00
    0.60938E+00    0.10000E+01    0.00000E+00
    0.61719E+00    0.10000E+01    0.00000E+00
    0.62500E+00    0.10000E+01    0.00000E+00
    0.63281E+00    0.10000E+01    0.00000E+00
    0.64062E+00    0.10000E+01    0.00000E+00
    0.64844E+00    0.10000E+01    0.00000E+00
    0.65625E+00    0.10000E+01    0.00000E+00
    0.66406E+00    0.10000E+01    0.00000E+00
    0.67188E+00    0.10000E+01    0.00000E+00
    0.67969E+00    0.10000E+01    0.00000E+00
    0.68750E+00    0.10000E+01    0.00000E+00
    0.69531E+00    0.10000E+01    0.00000E+00
    0.70312E+00    0.10000E+01    0.00000E+00
    0.71094E+00    0.10000E+01    0.00000E+00
    0.71875E+00    0.10000E+01    0.00000E+00
    0.72656E+00    0.10000E+01    0.00000E+00
    0.73438E+00    0.10000E+01    0.00000E+00
    0.74219E+00    0.10000E+01    0.00000E+00
    0.75000E+00    0.10000E+01    0.00000E+00
    0.75781E+00    0.10000E+01    0.00000E+00
    0.76562E+00    0.10000E+01    0.00000E+00
    0.77344E+00    0.10000E+01    0.00000E+00
    0.78125E+00    0.10000E+01    0.00000E+00
    0.78906E+00    0.10000E+01    0.00000E+00
    0.79688E+00    0.10000E+01    0.00000E+00
    0.80469E+00    0.10000E+01    0.00000E+00
    0.81250E+00    0.10000E+01    0.00000E+00
    0.82031E+00    0.10000E+01    0.00000E+00
    0.82812E+00    0.10000E+01    0.00000E+00
    0.83594E+00    0.10000E+01    0.00000E+00
    0.84375E+00    0.10000E+01    0.00000E+00
    0.85156E+00    0.10000E+01    0.00000E+00
    0.85938E+00    0.10000E+01    0.00000E+00
    0.86719E+00    0.10000E+01    0.00000E+00
    0.87500E+00    0.10000E+01    0.00000E+00
    0.88281E+00    0.10000E+01    0.00000E+00
    0.89062E+00    0.10000E+01    0.00000E+00
    0.89844E+00    0.10000E+01    0.00000E+00
    0.90625E+00    0.10000E+01    0.00000E+00
    0.91406E+00    0.10000E+01    0.00000E+00
    0.92188E+00    0.10000E+01    0.00000E+00
    0.92969E+00    0.10000E+01    0.00000E+00
    0.93750E+00    0.10000E+01    0.00000E+00
    0.94531E+00    0.10000E+01    0.00000E+00
    0.95312E+00    0.10000E+01    0.00000E+00
    0.96094E+00    0.10000E+01    0.00000E+00
    0.96875E+00    0.10000E+01    0.00000E+00
    0.97656E+00    0.10000E+01    0.00000E+00
    0.98438E+00    0.10000E+01    0.00000E+00
    0.99219E+00    0.10000E+01    0.00000E+00
    0.10000E+01    0.10000E+01    0.00000E+00
    0.00000E+00    0.99219E+00    0.00000E+00
    0.78125E-02    0.99219E+00    0.00000E+00
    0.15625E-01    0.99219E+00    0.00000E+00
    0.23438E-01    0.99219E+00    0.00000E+00
    0.31250E-01    0.99219E+00    0.00000E+00
    0.39062E-01    0.99219E+00    0.00000E+00
    0.46875E-01    0.99219E+00    0.00000E+00
    0.54688E-01    0.99219E+00    0.00000E+00
    0.62500E-01    0.99219E+00    0.00000E+00
    0.70312E-01    0.99219E+00    0.00000E+00
    0.78125E-01    0.99219E+00    0.00000E+00
    0.85938E-01    0.99219E+00    0.00000E+00
    0.93750E-01    0.99219E+00    0.00000E+00
    0.10156E+00    0.99219E+00    0.00000E+00
    0.10938E+00    0.99219E+00    0.00000E+00
    0.11719E+00    0.99219E+00    0.00000E+00
    0.12500E+00    0.99219E+00    0.00000E+00
    0.13281E+00    0.99219E+00    0.00000E+00
    0.14062E+00    0.99219E+00    0.00000E+00
    0.14844E+00    0.99219E+00    0.00000E+00
    0.15625E+00    0.99219E+00    0.00000E+00
    0.16406E+00    0.99219E+00    0.00000E+00
    0.17188E+00    0.99219E+00    0.00000E+00
    0.17969E+00    0.99219E+00    0.00000E+00
    0.18750E+00    0.99219E+00    0.00000E+00
    0.19531E+00    0.99219E+00    0.00000E+00
    0.20312E+00    0.99219E+00    0.00000E+00
    0.21094E+00    0.99219E+00    0.00000E+00
    0.21875E+00    0.99219E+00    0.00000E+00
    0.22656E+00    0.99219E+00    0.00000E+00
    0.23438E+00    0.99219E+00    0.00000E+00
    0.24219E+00    0.99219E+00    0.00000E+00
    0.25000E+00    0.99219E+00    0.00000E+00
    0.25781E+00    0.99219E+00    0.00000E+00
    0.26562E+00    0.99219E+00    0.00000E+00
    0.27344E+00    0.99219E+00    0.00000E+00
    0.28125E+00    0.99219E+00    0.00000E+00
    0.28906E+00    0.99219E+00    0.00000E+00
    0.29688E+00    0.99219E+00    0.00000E+00
    0.30469E+00    0.99219E+00    0.00000E+00
    0.31250E+00    0.99219E+00    0.00000E+00
    0.32031E+00    0.99219E+00    0.00000E+00
    0.32812E+00    0.99219E+00    0.00000E+00
    0.33594E+00    0.99219E+00    0.00000E+00
    0.34375E+00    0.99219E+00    0.00000E+00
    0.35156E+00    0.99219E+00    0.00000E+00
    0.35938E+00    0.99219E+00    0.00000E+00
    0.36719E+00    0.99219E+00    0.00000E+00
    0.37500E+00    0.99219E+00    0.00000E+00
    0.38281E+00    0.99219E+00    0.00000E+00
    0.39062E+00    0.99219E+00    0.00000E+00
    0.39844E+00    0.99219E+00    0.00000E+00
    0.40625E+00    0.99219E+00    0.00000E+00
    0.41406E+00    0.99219E+00    0.00000E+00
    0.42188E+00    0.99219E+00    0.00000E+00
    0.42969E+00    0.99219E+00    0.00000E+00
    0.43750E+00    0.99219E+00    0.00000E+00
    0.44531E+00    0.99219E+00    0.00000E+00
    0.45312E+00    0.99219E+00    0.00000E+00
    0.46094E+00    0.99219E+00    0.00000E+00
    0.46875E+00    0.99219E+00    0.00000E+00
    0.47656E+00    0.99219E+00    0.00000E+00
    0.48438E+00    0.99219E+00    0.00000E+00
    0.49219E+00    0.99219E+00    0.00000E+00
    0.50000E+00    0.99219E+00    0.00000E+00
    0.50781E+00    0.99219E+00    0.00000E+00
    0.51562E+00    0.99219E+00    0.00000E+00
    0.52344E+00    0.99219E+00    0.00000E+00
    0.53125E+00    0.99219E+00    0.00000E+00
    0.53906E+00    0.99219E+00    0.00000E+00
    0.54688E+00    0.99219E+00    0.00000E+00
    0.55469E+00    0.99219E+00    0.00000E+00
    0.56250E+00    0.99219E+00    0.00000E+00
    0.57031E+00    0.99219E+00    0.00000E+00
    0.57812E+00    0.99219E+00    0.00000E+00
    0.58594E+00    0.99219E+00    0.00000E+00
    0.59375E+00    0.99219E+00    0.00000E+00
    0.60156E+00    0.99219E+00    0.00000E+00
    0.60938E+00    0.99219E+00    0.00000E+00
    0.61719E+00    0.99219E+00    0.00000E+00
    0.62500E+00    0.99219E+00    0.00000E+00
    0.63281E+00    0.99219E+00    0.00000E+00
    0.64062E+00    0.99219E+00    0.00000E+00
    0.64844E+00    0.99219E+00    0.00000E+00
[...]
POINT_DATA      16641
VECTORS deslocamento double
   0.00000E+000   0.00000E+000   0.00000E+000
   0.81475E-001  -0.91908E-001   0.00000E+000
   0.13631E+000  -0.15020E+000   0.00000E+000
   0.17939E+000  -0.20252E+000   0.00000E+000
   0.21688E+000  -0.24949E+000   0.00000E+000
   0.25065E+000  -0.29321E+000   0.00000E+000
   0.28173E+000  -0.33450E+000   0.00000E+000
   0.31070E+000  -0.37393E+000   0.00000E+000
   0.33795E+000  -0.41187E+000   0.00000E+000
   0.36375E+000  -0.44858E+000   0.00000E+000
   0.38831E+000  -0.48425E+000   0.00000E+000
   0.41178E+000  -0.51904E+000   0.00000E+000
   0.43428E+000  -0.55306E+000   0.00000E+000
   0.45592E+000  -0.58640E+000   0.00000E+000
   0.47678E+000  -0.61914E+000   0.00000E+000
   0.49692E+000  -0.65135E+000   0.00000E+000
   0.51641E+000  -0.68308E+000   0.00000E+000
   0.53528E+000  -0.71437E+000   0.00000E+000
   0.55359E+000  -0.74526E+000   0.00000E+000
   0.57136E+000  -0.77580E+000   0.00000E+000
   0.58864E+000  -0.80600E+000   0.00000E+000
   0.60545E+000  -0.83590E+000   0.00000E+000
   0.62181E+000  -0.86551E+000   0.00000E+000
   0.63776E+000  -0.89487E+000   0.00000E+000
   0.65330E+000  -0.92398E+000   0.00000E+000
   0.66845E+000  -0.95286E+000   0.00000E+000
   0.68324E+000  -0.98153E+000   0.00000E+000
   0.69768E+000  -0.10100E+001   0.00000E+000
   0.71178E+000  -0.10383E+001   0.00000E+000
   0.72556E+000  -0.10664E+001   0.00000E+000
   0.73902E+000  -0.10943E+001   0.00000E+000
   0.75218E+000  -0.11221E+001   0.00000E+000
   0.76505E+000  -0.11497E+001   0.00000E+000
   0.77763E+000  -0.11772E+001   0.00000E+000
   0.78993E+000  -0.12046E+001   0.00000E+000
   0.80197E+000  -0.12318E+001   0.00000E+000
   0.81375E+000  -0.12588E+001   0.00000E+000
   0.82527E+000  -0.12858E+001   0.00000E+000
   0.83655E+000  -0.13127E+001   0.00000E+000
   0.84759E+000  -0.13394E+001   0.00000E+000
   0.85839E+000  -0.13660E+001   0.00000E+000
   0.86896E+000  -0.13925E+001   0.00000E+000
   0.87931E+000  -0.14189E+001   0.00000E+000
   0.88944E+000  -0.14452E+001   0.00000E+000
   0.89935E+000  -0.14714E+001   0.00000E+000
   0.90906E+000  -0.14975E+001   0.00000E+000
   0.91856E+000  -0.15235E+001   0.00000E+000
   0.92785E+000  -0.15495E+001   0.00000E+000
   0.93695E+000  -0.15753E+001   0.00000E+000
   0.94586E+000  -0.16010E+001   0.00000E+000
   0.95458E+000  -0.16267E+001   0.00000E+000
   0.96311E+000  -0.16522E+001   0.00000E+000
   0.97145E+000  -0.16777E+001   0.00000E+000
   0.97962E+000  -0.17030E+001   0.00000E+000
   0.98761E+000  -0.17283E+001   0.00000E+000
   0.99543E+000  -0.17535E+001   0.00000E+000
   0.10031E+001  -0.17786E+001   0.00000E+000
   0.10106E+001  -0.18037E+001   0.00000E+000
   0.10179E+001  -0.18286E+001   0.00000E+000
   0.10250E+001  -0.18534E+001   0.00000E+000
   0.10320E+001  -0.18782E+001   0.00000E+000
   0.10389E+001  -0.19029E+001   0.00000E+000
   0.10456E+001  -0.19274E+001   0.00000E+000
   0.10521E+001  -0.19519E+001   0.00000E+000
   0.10585E+001  -0.19763E+001   0.00000E+000
   0.10648E+001  -0.20006E+001   0.00000E+000
   0.10709E+001  -0.20249E+001   0.00000E+000
   0.10768E+001  -0.20490E+001   0.00000E+000
   0.10827E+001  -0.20730E+001   0.00000E+000
   0.10884E+001  -0.20970E+001   0.00000E+000
   0.10940E+001  -0.21208E+001   0.00000E+000
   0.10994E+001  -0.21446E+001   0.00000E+000
   0.11047E+001  -0.21682E+001   0.00000E+000
   0.11099E+001  -0.21918E+001   0.00000E+000
   0.11150E+001  -0.22153E+001   0.00000E+000
   0.11200E+001  -0.22387E+001   0.00000E+000
   0.11248E+001  -0.22619E+001   0.00000E+000
   0.11296E+001  -0.22851E+001   0.00000E+000
   0.11342E+001  -0.23082E+001   0.00000E+000
   0.11388E+001  -0.23312E+001   0.00000E+000
   0.11432E+001  -0.23541E+001   0.00000E+000
   0.11475E+001  -0.23769E+001   0.00000E+000
   0.11518E+001  -0.23996E+001   0.00000E+000
   0.11559E+001  -0.24222E+001   0.00000E+000
   0.11599E+001  -0.24446E+001   0.00000E+000
   0.11639E+001  -0.24670E+001   0.00000E+000
   0.11678E+001  -0.24893E+001   0.00000E+000
   0.11716E+001  -0.25115E+001   0.00000E+000
   0.11753E+001  -0.25336E+001   0.00000E+000
   0.11789E+001  -0.25555E+001   0.00000E+000
   0.11825E+001  -0.25774E+001   0.00000E+000
   0.11860E+001  -0.25992E+001   0.00000E+000
   0.11894E+001  -0.26208E+001   0.00000E+000
   0.11928E+001  -0.26424E+001   0.00000E+000
   0.11961E+001  -0.26639E+001   0.00000E+000
   0.11994E+001  -0.26852E+001   0.00000E+000
   0.12026E+001  -0.27065E+001   0.00000E+000
   0.12057E+001  -0.27277E+001   0.00000E+000
   0.12088E+001  -0.27487E+001   0.00000E+000
   0.12119E+001  -0.27697E+001   0.00000E+000
   0.12149E+001  -0.27905E+001   0.00000E+000
   0.12179E+001  -0.28113E+001   0.00000E+000
   0.12208E+001  -0.28320E+001   0.00000E+000
   0.12237E+001  -0.28525E+001   0.00000E+000
   0.12266E+001  -0.28730E+001   0.00000E+000
   0.12295E+001  -0.28934E+001   0.00000E+000
   0.12324E+001  -0.29137E+001   0.00000E+000
   0.12352E+001  -0.29339E+001   0.00000E+000
   0.12380E+001  -0.29541E+001   0.00000E+000
   0.12408E+001  -0.29741E+001   0.00000E+000
   0.12437E+001  -0.29941E+001   0.00000E+000
   0.12465E+001  -0.30140E+001   0.00000E+000
   0.12493E+001  -0.30338E+001   0.00000E+000
   0.12521E+001  -0.30536E+001   0.00000E+000
   0.12549E+001  -0.30733E+001   0.00000E+000
   0.12577E+001  -0.30929E+001   0.00000E+000
   0.12606E+001  -0.31125E+001   0.00000E+000
   0.12634E+001  -0.31321E+001   0.00000E+000
   0.12663E+001  -0.31516E+001   0.00000E+000
   0.12692E+001  -0.31710E+001   0.00000E+000
   0.12722E+001  -0.31905E+001   0.00000E+000
   0.12751E+001  -0.32099E+001   0.00000E+000
   0.12781E+001  -0.32293E+001   0.00000E+000
   0.12811E+001  -0.32487E+001   0.00000E+000
   0.12841E+001  -0.32681E+001   0.00000E+000
   0.12871E+001  -0.32875E+001   0.00000E+000
   0.12901E+001  -0.33069E+001   0.00000E+000
   0.12932E+001  -0.33263E+001   0.00000E+000
   0.12962E+001  -0.33458E+001   0.00000E+000
   0.00000E+000   0.00000E+000   0.00000E+000
   0.42471E-001  -0.61836E-001   0.00000E+000
   0.92735E-001  -0.12572E+000   0.00000E+000
   0.13702E+000  -0.17966E+000   0.00000E+000
   0.17624E+000  -0.22840E+000   0.00000E+000
   0.21162E+000  -0.27338E+000   0.00000E+000
   0.24407E+000  -0.31568E+000   0.00000E+000
   0.27421E+000  -0.35593E+000   0.00000E+000
   0.30246E+000  -0.39456E+000   0.00000E+000
   0.32913E+000  -0.43186E+000   0.00000E+000
   0.35445E+000  -0.46804E+000   0.00000E+000
   0.37859E+000  -0.50328E+000   0.00000E+000
   0.40169E+000  -0.53770E+000   0.00000E+000
   0.42386E+000  -0.57140E+000   0.00000E+000
   0.44520E+000  -0.60447E+000   0.00000E+000
   0.46578E+000  -0.63698E+000   0.00000E+000
   0.48566E+000  -0.66898E+000   0.00000E+000
   0.50489E+000  -0.70053E+000   0.00000E+000
   0.52353E+000  -0.73167E+000   0.00000E+000
   0.54161E+000  -0.76243E+000   0.00000E+000
   0.55917E+000  -0.79284E+000   0.00000E+000
   0.57624E+000  -0.82294E+000   0.00000E+000
   0.59285E+000  -0.85274E+000   0.00000E+000
   0.60902E+000  -0.88228E+000   0.00000E+000
   0.62477E+000  -0.91156E+000   0.00000E+000
   0.64013E+000  -0.94060E+000   0.00000E+000
   0.65511E+000  -0.96943E+000   0.00000E+000
   0.66972E+000  -0.99805E+000   0.00000E+000
   0.68399E+000  -0.10265E+001   0.00000E+000
   0.69792E+000  -0.10547E+001   0.00000E+000
   0.71154E+000  -0.10828E+001   0.00000E+000
   0.72484E+000  -0.11107E+001   0.00000E+000
   0.73784E+000  -0.11384E+001   0.00000E+000
   0.75055E+000  -0.11660E+001   0.00000E+000
   0.76298E+000  -0.11935E+001   0.00000E+000
   0.77514E+000  -0.12208E+001   0.00000E+000
   0.78704E+000  -0.12480E+001   0.00000E+000
   0.79867E+000  -0.12751E+001   0.00000E+000
   0.81006E+000  -0.13020E+001   0.00000E+000
   0.82120E+000  -0.13289E+001   0.00000E+000
   0.83211E+000  -0.13556E+001   0.00000E+000
   0.84278E+000  -0.13822E+001   0.00000E+000
   0.85322E+000  -0.14087E+001   0.00000E+000
   0.86345E+000  -0.14351E+001   0.00000E+000
   0.87345E+000  -0.14614E+001   0.00000E+000
   0.88325E+000  -0.14876E+001   0.00000E+000
   0.89284E+000  -0.15137E+001   0.00000E+000
   0.90222E+000  -0.15397E+001   0.00000E+000
   0.91141E+000  -0.15656E+001   0.00000E+000
   0.92040E+000  -0.15914E+001   0.00000E+000
   0.92921E+000  -0.16171E+001   0.00000E+000
   0.93782E+000  -0.16428E+001   0.00000E+000
   0.94625E+000  -0.16683E+001   0.00000E+000
   0.95450E+000  -0.16938E+001   0.00000E+000
   0.96258E+000  -0.17191E+001   0.00000E+000
   0.97048E+000  -0.17444E+001   0.00000E+000
   0.97821E+000  -0.17696E+001   0.00000E+000
   0.98578E+000  -0.17947E+001   0.00000E+000
   0.99318E+000  -0.18197E+001   0.00000E+000
   0.10004E+001  -0.18446E+001   0.00000E+000
   0.10075E+001  -0.18694E+001   0.00000E+000
   0.10144E+001  -0.18941E+001   0.00000E+000
   0.10212E+001  -0.19188E+001   0.00000E+000
   0.10278E+001  -0.19433E+001   0.00000E+000
   0.10343E+001  -0.19678E+001   0.00000E+000
   0.10407E+001  -0.19922E+001   0.00000E+000
   0.10469E+001  -0.20164E+001   0.00000E+000
   0.10529E+001  -0.20406E+001   0.00000E+000
   0.10589E+001  -0.20647E+001   0.00000E+000
   0.10646E+001  -0.20887E+001   0.00000E+000
   0.10703E+001  -0.21126E+001   0.00000E+000
   0.10759E+001  -0.21364E+001   0.00000E+000
   0.10813E+001  -0.21602E+001   0.00000E+000
   0.10866E+001  -0.21838E+001   0.00000E+000
   0.10917E+001  -0.22073E+001   0.00000E+000
   0.10968E+001  -0.22307E+001   0.00000E+000
   0.11018E+001  -0.22541E+001   0.00000E+000
   0.11066E+001  -0.22773E+001   0.00000E+000
   0.11113E+001  -0.23004E+001   0.00000E+000
   0.11159E+001  -0.23235E+001   0.00000E+000
   0.11205E+001  -0.23464E+001   0.00000E+000
   0.11249E+001  -0.23692E+001   0.00000E+000
   0.11292E+001  -0.23919E+001   0.00000E+000
   0.11335E+001  -0.24146E+001   0.00000E+000
   0.11376E+001  -0.24371E+001   0.00000E+000
   0.11417E+001  -0.24595E+001   0.00000E+000
   0.11456E+001  -0.24818E+001   0.00000E+000
   0.11495E+001  -0.25041E+001   0.00000E+000
   0.11534E+001  -0.25262E+001   0.00000E+000
   0.11571E+001  -0.25482E+001   0.00000E+000
   0.11608E+001  -0.25701E+001   0.00000E+000
   0.11644E+001  -0.25919E+001   0.00000E+000
   0.11679E+001  -0.26136E+001   0.00000E+000
   0.11714E+001  -0.26352E+001   0.00000E+000
   0.11748E+001  -0.26566E+001   0.00000E+000
   0.11781E+001  -0.26780E+001   0.00000E+000
   0.11814E+001  -0.26993E+001   0.00000E+000
   0.11847E+001  -0.27205E+001   0.00000E+000
   0.11879E+001  -0.27416E+001   0.00000E+000
   0.11910E+001  -0.27625E+001   0.00000E+000
   0.11941E+001  -0.27834E+001   0.00000E+000
   0.11972E+001  -0.28042E+001   0.00000E+000
   0.12002E+001  -0.28249E+001   0.00000E+000
   0.12032E+001  -0.28455E+001   0.00000E+000
   0.12062E+001  -0.28660E+001   0.00000E+000
   0.12092E+001  -0.28864E+001   0.00000E+000
   0.12121E+001  -0.29067E+001   0.00000E+000
   0.12150E+001  -0.29269E+001   0.00000E+000
   0.12179E+001  -0.29470E+001   0.00000E+000
   0.12208E+001  -0.29671E+001   0.00000E+000
   0.12237E+001  -0.29871E+001   0.00000E+000
   0.12266E+001  -0.30070E+001   0.00000E+000
   0.12295E+001  -0.30268E+001   0.00000E+000
   0.12323E+001  -0.30466E+001   0.00000E+000
   0.12352E+001  -0.30663E+001   0.00000E+000
   0.12381E+001  -0.30859E+001   0.00000E+000
   0.12410E+001  -0.31055E+001   0.00000E+000
   0.12439E+001  -0.31250E+001   0.00000E+000
   0.12468E+001  -0.31445E+001   0.00000E+000
   0.12498E+001  -0.31640E+001   0.00000E+000
   0.12527E+001  -0.31834E+001   0.00000E+000
   0.12557E+001  -0.32028E+001   0.00000E+000
   0.12586E+001  -0.32222E+001   0.00000E+000
   0.12616E+001  -0.32416E+001   0.00000E+000
   0.12646E+001  -0.32610E+001   0.00000E+000
   0.12677E+001  -0.32804E+001   0.00000E+000
   0.12707E+001  -0.32998E+001   0.00000E+000
   0.12737E+001  -0.33192E+001   0.00000E+000
   0.12768E+001  -0.33387E+001   0.00000E+000
   0.00000E+000   0.00000E+000   0.00000E+000
   0.32677E-001  -0.50013E-001   0.00000E+000
   0.69493E-001  -0.10553E+000   0.00000E+000
   0.10826E+000  -0.15899E+000   0.00000E+000
   0.14521E+000  -0.20814E+000   0.00000E+000
   0.17978E+000  -0.25390E+000   0.00000E+000
   0.21206E+000  -0.29698E+000   0.00000E+000
   0.24232E+000  -0.33794E+000   0.00000E+000
   0.27082E+000  -0.37719E+000   0.00000E+000
   0.29780E+000  -0.41505E+000   0.00000E+000
   0.32345E+000  -0.45173E+000   0.00000E+000
   0.34792E+000  -0.48741E+000   0.00000E+000
   0.37135E+000  -0.52223E+000   0.00000E+000
   0.39384E+000  -0.55629E+000   0.00000E+000
   0.41547E+000  -0.58970E+000   0.00000E+000
   0.43633E+000  -0.62251E+000   0.00000E+000
   0.45647E+000  -0.65480E+000   0.00000E+000
   0.47595E+000  -0.68661E+000   0.00000E+000
   0.49482E+000  -0.71799E+000   0.00000E+000
   0.51312E+000  -0.74898E+000   0.00000E+000
   0.53089E+000  -0.77961E+000   0.00000E+000
   0.54816E+000  -0.80991E+000   0.00000E+000
   0.56495E+000  -0.83990E+000   0.00000E+000
   0.58129E+000  -0.86962E+000   0.00000E+000
   0.59721E+000  -0.89907E+000   0.00000E+000
   0.61272E+000  -0.92829E+000   0.00000E+000
   0.62785E+000  -0.95727E+000   0.00000E+000
   0.64261E+000  -0.98604E+000   0.00000E+000
   0.65701E+000  -0.10146E+001   0.00000E+000
   0.67107E+000  -0.10430E+001   0.00000E+000
   0.68481E+000  -0.10712E+001   0.00000E+000
   0.69823E+000  -0.10992E+001   0.00000E+000
   0.71134E+000  -0.11271E+001   0.00000E+000
   0.72416E+000  -0.11548E+001   0.00000E+000
   0.73670E+000  -0.11824E+001   0.00000E+000
   0.74896E+000  -0.12099E+001   0.00000E+000
   0.76095E+000  -0.12372E+001   0.00000E+000
   0.77268E+000  -0.12643E+001   0.00000E+000
   0.78416E+000  -0.12914E+001   0.00000E+000
   0.79539E+000  -0.13183E+001   0.00000E+000
   0.80638E+000  -0.13452E+001   0.00000E+000
   0.81714E+000  -0.13719E+001   0.00000E+000
   0.82767E+000  -0.13985E+001   0.00000E+000
   0.83798E+000  -0.14250E+001   0.00000E+000
   0.84807E+000  -0.14513E+001   0.00000E+000
   0.85794E+000  -0.14776E+001   0.00000E+000
   0.86761E+000  -0.15038E+001   0.00000E+000
   0.87708E+000  -0.15299E+001   0.00000E+000
   0.88634E+000  -0.15559E+001   0.00000E+000
   0.89541E+000  -0.15818E+001   0.00000E+000
   0.90429E+000  -0.16076E+001   0.00000E+000
   0.91298E+000  -0.16333E+001   0.00000E+000
   0.92149E+000  -0.16589E+001   0.00000E+000
   0.92982E+000  -0.16844E+001   0.00000E+000
   0.93797E+000  -0.17099E+001   0.00000E+000
   0.94595E+000  -0.17352E+001   0.00000E+000
   0.95376E+000  -0.17605E+001   0.00000E+000
   0.96140E+000  -0.17856E+001   0.00000E+000
   0.96888E+000  -0.18107E+001   0.00000E+000
   0.97620E+000  -0.18357E+001   0.00000E+000
   0.98336E+000  -0.18606E+001   0.00000E+000
   0.99037E+000  -0.18854E+001   0.00000E+000
   0.99722E+000  -0.19101E+001   0.00000E+000
   0.10039E+001  -0.19347E+001   0.00000E+000
   0.10105E+001  -0.19592E+001   0.00000E+000
   0.10169E+001  -0.19837E+001   0.00000E+000
   0.10232E+001  -0.20080E+001   0.00000E+000
   0.10293E+001  -0.20322E+001   0.00000E+000
   0.10353E+001  -0.20564E+001   0.00000E+000
   0.10412E+001  -0.20804E+001   0.00000E+000
   0.10470E+001  -0.21044E+001   0.00000E+000
   0.10526E+001  -0.21283E+001   0.00000E+000
   0.10581E+001  -0.21520E+001   0.00000E+000
   0.10635E+001  -0.21757E+001   0.00000E+000
   0.10687E+001  -0.21993E+001   0.00000E+000
   0.10739E+001  -0.22228E+001   0.00000E+000
   0.10789E+001  -0.22461E+001   0.00000E+000
   0.10838E+001  -0.22694E+001   0.00000E+000
   0.10887E+001  -0.22926E+001   0.00000E+000
   0.10934E+001  -0.23157E+001   0.00000E+000
   0.10980E+001  -0.23386E+001   0.00000E+000
   0.11025E+001  -0.23615E+001   0.00000E+000
   0.11069E+001  -0.23843E+001   0.00000E+000
   0.11113E+001  -0.24070E+001   0.00000E+000
   0.11155E+001  -0.24295E+001   0.00000E+000
   0.11196E+001  -0.24520E+001   0.00000E+000
   0.11237E+001  -0.24743E+001   0.00000E+000
   0.11277E+001  -0.24966E+001   0.00000E+000
   0.11316E+001  -0.25187E+001   0.00000E+000
   0.11354E+001  -0.25408E+001   0.00000E+000
   0.11392E+001  -0.25627E+001   0.00000E+000
   0.11429E+001  -0.25845E+001   0.00000E+000
   0.11465E+001  -0.26062E+001   0.00000E+000
   0.11501E+001  -0.26279E+001   0.00000E+000
   0.11536E+001  -0.26494E+001   0.00000E+000
   0.11570E+001  -0.26708E+001   0.00000E+000
   0.11604E+001  -0.26921E+001   0.00000E+000
   0.11637E+001  -0.27133E+001   0.00000E+000
   0.11670E+001  -0.27344E+001   0.00000E+000
   0.11702E+001  -0.27554E+001   0.00000E+000
   0.11734E+001  -0.27763E+001   0.00000E+000
   0.11766E+001  -0.27971E+001   0.00000E+000
   0.11797E+001  -0.28178E+001   0.00000E+000
   0.11828E+001  -0.28384E+001   0.00000E+000
   0.11859E+001  -0.28589E+001   0.00000E+000
   0.11889E+001  -0.28793E+001   0.00000E+000
   0.11919E+001  -0.28996E+001   0.00000E+000
   0.11949E+001  -0.29198E+001   0.00000E+000
   0.11979E+001  -0.29400E+001   0.00000E+000
   0.12008E+001  -0.29600E+001   0.00000E+000
   0.12038E+001  -0.29800E+001   0.00000E+000
   0.12067E+001  -0.29999E+001   0.00000E+000
   0.12097E+001  -0.30198E+001   0.00000E+000
   0.12126E+001  -0.30395E+001   0.00000E+000
   0.12155E+001  -0.30592E+001   0.00000E+000
   0.12185E+001  -0.30789E+001   0.00000E+000
   0.12214E+001  -0.30984E+001   0.00000E+000
   0.12243E+001  -0.31180E+001   0.00000E+000
   0.12273E+001  -0.31375E+001   0.00000E+000
   0.12302E+001  -0.31569E+001   0.00000E+000
   0.12332E+001  -0.31764E+001   0.00000E+000
   0.12362E+001  -0.31958E+001   0.00000E+000
   0.12392E+001  -0.32151E+001   0.00000E+000
   0.12422E+001  -0.32345E+001   0.00000E+000
   0.12452E+001  -0.32539E+001   0.00000E+000
   0.12482E+001  -0.32733E+001   0.00000E+000
   0.12513E+001  -0.32927E+001   0.00000E+000
   0.12543E+001  -0.33121E+001   0.00000E+000
   0.12574E+001  -0.33315E+001   0.00000E+000
   0.00000E+000   0.00000E+000   0.00000E+000
   0.26973E-001  -0.43787E-001   0.00000E+000
   0.57176E-001  -0.92707E-001   0.00000E+000
   0.89583E-001  -0.14243E+000   0.00000E+000
   0.12256E+000  -0.19041E+000   0.00000E+000
   0.15475E+000  -0.23596E+000   0.00000E+000
   0.18563E+000  -0.27924E+000   0.00000E+000
   0.21507E+000  -0.32056E+000   0.00000E+000
   0.24312E+000  -0.36023E+000   0.00000E+000
   0.26987E+000  -0.39850E+000   0.00000E+000
   0.29542E+000  -0.43559E+000   0.00000E+000
   0.31989E+000  -0.47165E+000   0.00000E+000
   0.34336E+000  -0.50683E+000   0.00000E+000
   0.36593E+000  -0.54123E+000   0.00000E+000
   0.38766E+000  -0.57495E+000   0.00000E+000
   0.40864E+000  -0.60805E+000   0.00000E+000
   0.42890E+000  -0.64061E+000   0.00000E+000
   0.44852E+000  -0.67267E+000   0.00000E+000
   0.46752E+000  -0.70429E+000   0.00000E+000
   0.48595E+000  -0.73550E+000   0.00000E+000
   0.50384E+000  -0.76635E+000   0.00000E+000
   0.52123E+000  -0.79685E+000   0.00000E+000
   0.53815E+000  -0.82703E+000   0.00000E+000
   0.55461E+000  -0.85693E+000   0.00000E+000
   0.57064E+000  -0.88656E+000   0.00000E+000
   0.58626E+000  -0.91594E+000   0.00000E+000
   0.60149E+000  -0.94508E+000   0.00000E+000
   0.61635E+000  -0.97401E+000   0.00000E+000
   0.63086E+000  -0.10027E+001   0.00000E+000
   0.64501E+000  -0.10312E+001   0.00000E+000
   0.65884E+000  -0.10596E+001   0.00000E+000
   0.67235E+000  -0.10878E+001   0.00000E+000
   0.68556E+000  -0.11158E+001   0.00000E+000
   0.69846E+000  -0.11436E+001   0.00000E+000
   0.71108E+000  -0.11713E+001   0.00000E+000
   0.72342E+000  -0.11989E+001   0.00000E+000
   0.73549E+000  -0.12263E+001   0.00000E+000
   0.74730E+000  -0.12536E+001   0.00000E+000
   0.75886E+000  -0.12807E+001   0.00000E+000
   0.77017E+000  -0.13078E+001   0.00000E+000
   0.78123E+000  -0.13347E+001   0.00000E+000
   0.79206E+000  -0.13615E+001   0.00000E+000
   0.80266E+000  -0.13882E+001   0.00000E+000
   0.81304E+000  -0.14148E+001   0.00000E+000
   0.82320E+000  -0.14413E+001   0.00000E+000
   0.83314E+000  -0.14676E+001   0.00000E+000