# vtk DataFile Version 3.0
Dataset convertido do arquivo q32.out                                                                         
ASCII

DATASET UNSTRUCTURED_GRID
POINTS      1089 float
    0.00000E+00    0.10000E+01    0.00000E+00
    0.31250E-01    0.10000E+01    0.00000E+00
    0.62500E-01    0.10000E+01    0.00000E+00
    0.93750E-01    0.10000E+01    0.00000E+00
    0.12500E+00    0.10000E+01    0.00000E+00
    0.15625E+00    0.10000E+01    0.00000E+00
    0.18750E+00    0.10000E+01    0.00000E+00
    0.21875E+00    0.10000E+01    0.00000E+00
    0.25000E+00    0.10000E+01    0.00000E+00
    0.28125E+00    0.10000E+01    0.00000E+00
    0.31250E+00    0.10000E+01    0.00000E+00
    0.34375E+00    0.10000E+01    0.00000E+00
    0.37500E+00    0.10000E+01    0.00000E+00
    0.40625E+00    0.10000E+01    0.00000E+00
    0.43750E+00    0.10000E+01    0.00000E+00
    0.46875E+00    0.10000E+01    0.00000E+00
    0.50000E+00    0.10000E+01    0.00000E+00
    0.53125E+00    0.10000E+01    0.00000E+00
    0.56250E+00    0.10000E+01    0.00000E+00
    0.59375E+00    0.10000E+01    0.00000E+00
    0.62500E+00    0.10000E+01    0.00000E+00
    0.65625E+00    0.10000E+01    0.00000E+00
    0.68750E+00    0.10000E+01    0.00000E+00
    0.71875E+00    0.10000E+01    0.00000E+00
    0.75000E+00    0.10000E+01    0.00000E+00
    0.78125E+00    0.10000E+01    0.00000E+00
    0.81250E+00    0.10000E+01    0.00000E+00
    0.84375E+00    0.10000E+01    0.00000E+00
    0.87500E+00    0.10000E+01    0.00000E+00
    0.90625E+00    0.10000E+01    0.00000E+00
    0.93750E+00    0.10000E+01    0.00000E+00
    0.96875E+00    0.10000E+01    0.00000E+00
    0.10000E+01    0.10000E+01    0.00000E+00
    0.00000E+00    0.96875E+00    0.00000E+00
    0.31250E-01    0.96875E+00    0.00000E+00
    0.62500E-01    0.96875E+00    0.00000E+00
    0.93750E-01    0.96875E+00    0.00000E+00
    0.12500E+00    0.96875E+00    0.00000E+00
    0.15625E+00    0.96875E+00    0.00000E+00
    0.18750E+00    0.96875E+00    0.00000E+00
    0.21875E+00    0.96875E+00    0.00000E+00
    0.25000E+00    0.96875E+00    0.00000E+00
    0.28125E+00    0.96875E+00    0.00000E+00
    0.31250E+00    0.96875E+00    0.00000E+00
    0.34375E+00    0.96875E+00    0.00000E+00
    0.37500E+00    0.96875E+00    0.00000E+00
    0.40625E+00    0.96875E+00    0.00000E+00
    0.43750E+00    0.96875E+00    0.00000E+00
    0.46875E+00    0.96875E+00    0.00000E+00
    0.50000E+00    0.96875E+00    0.00000E+00
    0.53125E+00    0.96875E+00    0.00000E+00
    0.56250E+00    0.96875E+00    0.00000E+00
    0.59375E+00    0.96875E+00    0.00000E+00
    0.62500E+00    0.96875E+00    0.00000E+00
    0.65625E+00    0.96875E+00    0.00000E+00
    0.68750E+00    0.96875E+00    0.00000E+00
    0.71875E+00    0.96875E+00    0.00000E+00
    0.75000E+00    0.96875E+00    0.00000E+00
    0.78125E+00    0.96875E+00    0.00000E+00
    0.81250E+00    0.96875E+00    0.00000E+00
    0.84375E+00    0.96875E+00    0.00000E+00
    0.87500E+00    0.96875E+00    0.00000E+00
    0.90625E+00    0.96875E+00    0.00000E+00
    0.93750E+00    0.96875E+00    0.00000E+00
    0.96875E+00    0.96875E+00    0.00000E+00
    0.10000E+01    0.96875E+00    0.00000E+00
    0.00000E+00    0.93750E+00    0.00000E+00
    0.31250E-01    0.93750E+00    0.00000E+00
    0.62500E-01    0.93750E+00    0.00000E+00
    0.93750E-01    0.93750E+00    0.00000E+00
    0.12500E+00    0.93750E+00    0.00000E+00
    0.15625E+00    0.93750E+00    0.00000E+00
    0.18750E+00    0.93750E+00    0.00000E+00
    0.21875E+00    0.93750E+00    0.00000E+00
    0.25000E+00    0.93750E+00    0.00000E+00
    0.28125E+00    0.93750E+00    0.00000E+00
    0.31250E+00    0.93750E+00    0.00000E+00
    0.34375E+00    0.93750E+00    0.00000E+00
    0.37500E+00    0.93750E+00    0.00000E+00
    0.40625E+00    0.93750E+00    0.00000E+00
    0.43750E+00    0.93750E+00    0.00000E+00
    0.46875E+00    0.93750E+00    0.00000E+00
    0.50000E+00    0.93750E+00    0.00000E+00
    0.53125E+00    0.93750E+00    0.00000E+00
    0.56250E+00    0.93750E+00    0.00000E+00
    0.59375E+00    0.93750E+00    0.00000E+00
    0.62500E+00    0.93750E+00    0.00000E+00
    0.65625E+00    0.93750E+00    0.00000E+00
    0.68750E+00    0.93750E+00    0.00000E+00
    0.71875E+00    0.93750E+00    0.00000E+00
    0.75000E+00    0.93750E+00    0.00000E+00
    0.78125E+00    0.93750E+00    0.00000E+00
    0.81250E+00    0.93750E+00    0.00000E+00
    0.84375E+00    0.93750E+00    0.00000E+00
    0.87500E+00    0.93750E+00    0.00000E+00
    0.90625E+00    0.93750E+00    0.00000E+00
    0.93750E+00    0.93750E+00    0.00000E+00
    0.96875E+00    0.93750E+00    0.00000E+00
    0.10000E+01    0.93750E+00    0.00000E+00
    0.00000E+00    0.90625E+00    0.00000E+00
    0.31250E-01    0.90625E+00    0.00000E+00
    0.62500E-01    0.90625E+00    0.00000E+00
    0.93750E-01    0.90625E+00    0.00000E+00
    0.12500E+00    0.90625E+00    0.00000E+00
    0.15625E+00    0.90625E+00    0.00000E+00
    0.18750E+00    0.90625E+00    0.00000E+00
    0.21875E+00    0.90625E+00    0.00000E+00
    0.25000E+00    0.90625E+00    0.00000E+00
    0.28125E+00    0.90625E+00    0.00000E+00
    0.31250E+00    0.90625E+00    0.00000E+00
    0.34375E+00    0.90625E+00    0.00000E+00
    0.37500E+00    0.90625E+00    0.00000E+00
    0.40625E+00    0.90625E+00    0.00000E+00
    0.43750E+00    0.90625E+00    0.00000E+00
    0.46875E+00    0.90625E+00    0.00000E+00
    0.50000E+00    0.90625E+00    0.00000E+00
    0.53125E+00    0.90625E+00    0.00000E+00
    0.56250E+00    0.90625E+00    0.00000E+00
    0.59375E+00    0.90625E+00    0.00000E+00
    0.62500E+00    0.90625E+00    0.00000E+00
    0.65625E+00    0.90625E+00    0.00000E+00
    0.68750E+00    0.90625E+00    0.00000E+00
    0.71875E+00    0.90625E+00    0.00000E+00
    0.75000E+00    0.90625E+00    0.00000E+00
    0.78125E+00    0.90625E+00    0.00000E+00
    0.81250E+00    0.90625E+00    0.00000E+00
    0.84375E+00    0.90625E+00    0.00000E+00
    0.87500E+00    0.90625E+00    0.00000E+00
    0.90625E+00    0.90625E+00    0.00000E+00
    0.93750E+00    0.90625E+00    0.00000E+00
    0.96875E+00    0.90625E+00    0.00000E+00
    0.10000E+01    0.90625E+00    0.00000E+00
    0.00000E+00    0.87500E+00    0.00000E+00
    0.31250E-01    0.87500E+00    0.00000E+00
    0.62500E-01    0.87500E+00    0.00000E+00
    0.93750E-01    0.87500E+00    0.00000E+00
    0.12500E+00    0.87500E+00    0.00000E+00
    0.15625E+00    0.87500E+00    0.00000E+00
    0.18750E+00    0.87500E+00    0.00000E+00
    0.21875E+00    0.87500E+00    0.00000E+00
    0.25000E+00    0.87500E+00    0.00000E+00
    0.28125E+00    0.87500E+00    0.00000E+00
    0.31250E+00    0.87500E+00    0.00000E+00
    0.34375E+00    0.87500E+00    0.00000E+00
    0.37500E+00    0.87500E+00    0.00000E+00
    0.40625E+00    0.87500E+00    0.00000E+00
    0.43750E+00    0.87500E+00    0.00000E+00
    0.46875E+00    0.87500E+00    0.00000E+00
    0.50000E+00    0.87500E+00    0.00000E+00
    0.53125E+00    0.87500E+00    0.00000E+00
    0.56250E+00    0.87500E+00    0.00000E+00
    0.59375E+00    0.87500E+00    0.00000E+00
    0.62500E+00    0.87500E+00    0.00000E+00
    0.65625E+00    0.87500E+00    0.00000E+00
    0.68750E+00    0.87500E+00    0.00000E+00
    0.71875E+00    0.87500E+00    0.00000E+00
    0.75000E+00    0.87500E+00    0.00000E+00
    0.78125E+00    0.87500E+00    0.00000E+00
    0.81250E+00    0.87500E+00    0.00000E+00
    0.84375E+00    0.87500E+00    0.00000E+00
    0.87500E+00    0.87500E+00    0.00000E+00
    0.90625E+00    0.87500E+00    0.00000E+00
    0.93750E+00    0.87500E+00    0.00000E+00
    0.96875E+00    0.87500E+00    0.00000E+00
    0.10000E+01    0.87500E+00    0.00000E+00
    0.00000E+00    0.84375E+00    0.00000E+00
    0.31250E-01    0.84375E+00    0.00000E+00
    0.62500E-01    0.84375E+00    0.00000E+00
    0.93750E-01    0.84375E+00    0.00000E+00
    0.12500E+00    0.84375E+00    0.00000E+00
    0.15625E+00    0.84375E+00    0.00000E+00
    0.18750E+00    0.84375E+00    0.00000E+00
    0.21875E+00    0.84375E+00    0.00000E+00
    0.25000E+00    0.84375E+00    0.00000E+00
    0.28125E+00    0.84375E+00    0.00000E+00
    0.31250E+00    0.84375E+00    0.00000E+00
    0.34375E+00    0.84375E+00    0.00000E+00
    0.37500E+00    0.84375E+00    0.00000E+00
    0.40625E+00    0.84375E+00    0.00000E+00
    0.43750E+00    0.84375E+00    0.00000E+00
    0.46875E+00    0.84375E+00    0.00000E+00
    0.50000E+00    0.84375E+00    0.00000E+00
    0.53125E+00    0.84375E+00    0.00000E+00
    0.56250E+00    0.84375E+00    0.00000E+00
    0.59375E+00    0.84375E+00    0.00000E+00
    0.62500E+00    0.84375E+00    0.00000E+00
    0.65625E+00    0.84375E+00    0.00000E+00
    0.68750E+00    0.84375E+00    0.00000E+00
    0.71875E+00    0.84375E+00    0.00000E+00
    0.75000E+00    0.84375E+00    0.00000E+00
    0.78125E+00    0.84375E+00    0.00000E+00
    0.81250E+00    0.84375E+00    0.00000E+00
    0.84375E+00    0.84375E+00    0.00000E+00
    0.87500E+00    0.84375E+00    0.00000E+00
    0.90625E+00    0.84375E+00    0.00000E+00
    0.93750E+00    0.84375E+00    0.00000E+00
    0.96875E+00    0.84375E+00    0.00000E+00
    0.10000E+01    0.84375E+00    0.00000E+00
    0.00000E+00    0.81250E+00    0.00000E+00
    0.31250E-01    0.81250E+00    0.00000E+00
    0.62500E-01    0.81250E+00    0.00000E+00
    0.93750E-01    0.81250E+00    0.00000E+00
    0.12500E+00    0.81250E+00    0.00000E+00
    0.15625E+00    0.81250E+00    0.00000E+00
    0.18750E+00    0.81250E+00    0.00000E+00
    0.21875E+00    0.81250E+00    0.00000E+00
    0.25000E+00    0.81250E+00    0.00000E+00
    0.28125E+00    0.81250E+00    0.00000E+00
    0.31250E+00    0.81250E+00    0.00000E+00
    0.34375E+00    0.81250E+00    0.00000E+00
    0.37500E+00    0.81250E+00    0.00000E+00
    0.40625E+00    0.81250E+00    0.00000E+00
    0.43750E+00    0.81250E+00    0.00000E+00
[...]
POINT_DATA       1089
VECTORS deslocamento double
   0.00000E+000   0.00000E+000   0.00000E+000
   0.20082E+000  -0.24604E+000   0.00000E+000
   0.33065E+000  -0.40367E+000   0.00000E+000
   0.42892E+000  -0.54701E+000   0.00000E+000
   0.51191E+000  -0.67765E+000   0.00000E+000
   0.58452E+000  -0.80101E+000   0.00000E+000
   0.64937E+000  -0.91919E+000   0.00000E+000
   0.70796E+000  -0.10336E+001   0.00000E+000
   0.76129E+000  -0.11450E+001   0.00000E+000
   0.81002E+000  -0.12541E+001   0.00000E+000
   0.85468E+000  -0.13612E+001   0.00000E+000
   0.89565E+000  -0.14665E+001   0.00000E+000
   0.93326E+000  -0.15702E+001   0.00000E+000
   0.96776E+000  -0.16724E+001   0.00000E+000
   0.99938E+000  -0.17732E+001   0.00000E+000
   0.10283E+001  -0.18726E+001   0.00000E+000
   0.10548E+001  -0.19706E+001   0.00000E+000
   0.10790E+001  -0.20671E+001   0.00000E+000
   0.11011E+001  -0.21621E+001   0.00000E+000
   0.11212E+001  -0.22556E+001   0.00000E+000
   0.11396E+001  -0.23475E+001   0.00000E+000
   0.11563E+001  -0.24379E+001   0.00000E+000
   0.11717E+001  -0.25266E+001   0.00000E+000
   0.11859E+001  -0.26137E+001   0.00000E+000
   0.11990E+001  -0.26991E+001   0.00000E+000
   0.12114E+001  -0.27829E+001   0.00000E+000
   0.12232E+001  -0.28652E+001   0.00000E+000
   0.12346E+001  -0.29461E+001   0.00000E+000
   0.12459E+001  -0.30256E+001   0.00000E+000
   0.12572E+001  -0.31042E+001   0.00000E+000
   0.12688E+001  -0.31819E+001   0.00000E+000
   0.12807E+001  -0.32594E+001   0.00000E+000
   0.12928E+001  -0.33368E+001   0.00000E+000
   0.00000E+000   0.00000E+000   0.00000E+000
   0.95450E-001  -0.16534E+000   0.00000E+000
   0.21168E+000  -0.33799E+000   0.00000E+000
   0.31174E+000  -0.48578E+000   0.00000E+000
   0.39799E+000  -0.62129E+000   0.00000E+000
   0.47362E+000  -0.74823E+000   0.00000E+000
   0.54098E+000  -0.86935E+000   0.00000E+000
   0.60166E+000  -0.98620E+000   0.00000E+000
   0.65674E+000  -0.10998E+001   0.00000E+000
   0.70701E+000  -0.12107E+001   0.00000E+000
   0.75303E+000  -0.13194E+001   0.00000E+000
   0.79527E+000  -0.14263E+001   0.00000E+000
   0.83407E+000  -0.15314E+001   0.00000E+000
   0.86974E+000  -0.16349E+001   0.00000E+000
   0.90254E+000  -0.17368E+001   0.00000E+000
   0.93268E+000  -0.18373E+001   0.00000E+000
   0.96037E+000  -0.19363E+001   0.00000E+000
   0.98580E+000  -0.20337E+001   0.00000E+000
   0.10092E+001  -0.21296E+001   0.00000E+000
   0.10306E+001  -0.22239E+001   0.00000E+000
   0.10503E+001  -0.23165E+001   0.00000E+000
   0.10685E+001  -0.24075E+001   0.00000E+000
   0.10853E+001  -0.24968E+001   0.00000E+000
   0.11008E+001  -0.25844E+001   0.00000E+000
   0.11154E+001  -0.26702E+001   0.00000E+000
   0.11291E+001  -0.27543E+001   0.00000E+000
   0.11421E+001  -0.28369E+001   0.00000E+000
   0.11546E+001  -0.29178E+001   0.00000E+000
   0.11669E+001  -0.29975E+001   0.00000E+000
   0.11789E+001  -0.30759E+001   0.00000E+000
   0.11909E+001  -0.31536E+001   0.00000E+000
   0.12030E+001  -0.32309E+001   0.00000E+000
   0.12152E+001  -0.33083E+001   0.00000E+000
   0.00000E+000   0.00000E+000   0.00000E+000
   0.68249E-001  -0.13378E+000   0.00000E+000
   0.14740E+000  -0.28419E+000   0.00000E+000
   0.23156E+000  -0.43085E+000   0.00000E+000
   0.31064E+000  -0.56762E+000   0.00000E+000
   0.38302E+000  -0.69683E+000   0.00000E+000
   0.44891E+000  -0.82021E+000   0.00000E+000
   0.50899E+000  -0.93916E+000   0.00000E+000
   0.56392E+000  -0.10546E+001   0.00000E+000
   0.61430E+000  -0.11673E+001   0.00000E+000
   0.66060E+000  -0.12776E+001   0.00000E+000
   0.70322E+000  -0.13859E+001   0.00000E+000
   0.74250E+000  -0.14924E+001   0.00000E+000
   0.77872E+000  -0.15971E+001   0.00000E+000
   0.81214E+000  -0.17002E+001   0.00000E+000
   0.84296E+000  -0.18017E+001   0.00000E+000
   0.87140E+000  -0.19017E+001   0.00000E+000
   0.89764E+000  -0.20000E+001   0.00000E+000
   0.92185E+000  -0.20968E+001   0.00000E+000
   0.94421E+000  -0.21918E+001   0.00000E+000
   0.96487E+000  -0.22852E+001   0.00000E+000
   0.98401E+000  -0.23768E+001   0.00000E+000
   0.10018E+001  -0.24666E+001   0.00000E+000
   0.10183E+001  -0.25547E+001   0.00000E+000
   0.10338E+001  -0.26409E+001   0.00000E+000
   0.10484E+001  -0.27254E+001   0.00000E+000
   0.10622E+001  -0.28082E+001   0.00000E+000
   0.10755E+001  -0.28894E+001   0.00000E+000
   0.10883E+001  -0.29691E+001   0.00000E+000
   0.11007E+001  -0.30476E+001   0.00000E+000
   0.11130E+001  -0.31253E+001   0.00000E+000
   0.11253E+001  -0.32024E+001   0.00000E+000
   0.11376E+001  -0.32796E+001   0.00000E+000
   0.00000E+000   0.00000E+000   0.00000E+000
   0.52110E-001  -0.11738E+000   0.00000E+000
   0.11264E+000  -0.25035E+000   0.00000E+000
   0.17884E+000  -0.38719E+000   0.00000E+000
   0.24634E+000  -0.52102E+000   0.00000E+000
   0.31142E+000  -0.64981E+000   0.00000E+000
   0.37271E+000  -0.77393E+000   0.00000E+000
   0.42981E+000  -0.89405E+000   0.00000E+000
   0.48280E+000  -0.10109E+001   0.00000E+000
   0.53190E+000  -0.11249E+001   0.00000E+000
   0.57736E+000  -0.12365E+001   0.00000E+000
   0.61947E+000  -0.13461E+001   0.00000E+000
   0.65848E+000  -0.14537E+001   0.00000E+000
   0.69461E+000  -0.15596E+001   0.00000E+000
   0.72808E+000  -0.16638E+001   0.00000E+000
   0.75908E+000  -0.17663E+001   0.00000E+000
   0.78780E+000  -0.18672E+001   0.00000E+000
   0.81440E+000  -0.19664E+001   0.00000E+000
   0.83906E+000  -0.20639E+001   0.00000E+000
   0.86191E+000  -0.21598E+001   0.00000E+000
   0.88312E+000  -0.22538E+001   0.00000E+000
   0.90283E+000  -0.23460E+001   0.00000E+000
   0.92119E+000  -0.24364E+001   0.00000E+000
   0.93832E+000  -0.25250E+001   0.00000E+000
   0.95438E+000  -0.26117E+001   0.00000E+000
   0.96949E+000  -0.26965E+001   0.00000E+000
   0.98380E+000  -0.27796E+001   0.00000E+000
   0.99743E+000  -0.28610E+001   0.00000E+000
   0.10105E+001  -0.29409E+001   0.00000E+000
   0.10232E+001  -0.30194E+001   0.00000E+000
   0.10356E+001  -0.30969E+001   0.00000E+000
   0.10479E+001  -0.31738E+001   0.00000E+000
   0.10604E+001  -0.32506E+001   0.00000E+000
   0.00000E+000   0.00000E+000   0.00000E+000
   0.41858E-001  -0.10707E+000   0.00000E+000
   0.89683E-001  -0.22759E+000   0.00000E+000
   0.14287E+000  -0.35463E+000   0.00000E+000
   0.19898E+000  -0.48267E+000   0.00000E+000
   0.25545E+000  -0.60879E+000   0.00000E+000
   0.31045E+000  -0.73196E+000   0.00000E+000
   0.36300E+000  -0.85210E+000   0.00000E+000
   0.41267E+000  -0.96943E+000   0.00000E+000
   0.45932E+000  -0.10842E+001   0.00000E+000
   0.50298E+000  -0.11968E+001   0.00000E+000
   0.54375E+000  -0.13073E+001   0.00000E+000
   0.58177E+000  -0.14159E+001   0.00000E+000
   0.61719E+000  -0.15228E+001   0.00000E+000
   0.65016E+000  -0.16279E+001   0.00000E+000
   0.68085E+000  -0.17313E+001   0.00000E+000
   0.70939E+000  -0.18331E+001   0.00000E+000
   0.73594E+000  -0.19331E+001   0.00000E+000
   0.76064E+000  -0.20314E+001   0.00000E+000
   0.78361E+000  -0.21279E+001   0.00000E+000
   0.80500E+000  -0.22226E+001   0.00000E+000
   0.82493E+000  -0.23155E+001   0.00000E+000
   0.84353E+000  -0.24065E+001   0.00000E+000
   0.86092E+000  -0.24955E+001   0.00000E+000
   0.87723E+000  -0.25826E+001   0.00000E+000
   0.89257E+000  -0.26679E+001   0.00000E+000
   0.90706E+000  -0.27513E+001   0.00000E+000
   0.92082E+000  -0.28329E+001   0.00000E+000
   0.93399E+000  -0.29129E+001   0.00000E+000
   0.94670E+000  -0.29914E+001   0.00000E+000
   0.95911E+000  -0.30688E+001   0.00000E+000
   0.97141E+000  -0.31452E+001   0.00000E+000
   0.98384E+000  -0.32213E+001   0.00000E+000
   0.00000E+000   0.00000E+000   0.00000E+000
   0.34355E-001  -0.99905E-001   0.00000E+000
   0.73214E-001  -0.21135E+000   0.00000E+000
   0.11654E+000  -0.32999E+000   0.00000E+000
   0.16315E+000  -0.45179E+000   0.00000E+000
   0.21135E+000  -0.57395E+000   0.00000E+000
   0.25962E+000  -0.69491E+000   0.00000E+000
   0.30684E+000  -0.81401E+000   0.00000E+000
   0.35233E+000  -0.93104E+000   0.00000E+000
   0.39572E+000  -0.10460E+001   0.00000E+000
   0.43681E+000  -0.11590E+001   0.00000E+000
   0.47555E+000  -0.12701E+001   0.00000E+000
   0.51197E+000  -0.13795E+001   0.00000E+000
   0.54613E+000  -0.14871E+001   0.00000E+000
   0.57811E+000  -0.15930E+001   0.00000E+000
   0.60802E+000  -0.16972E+001   0.00000E+000
   0.63597E+000  -0.17997E+001   0.00000E+000
   0.66207E+000  -0.19004E+001   0.00000E+000
   0.68643E+000  -0.19995E+001   0.00000E+000
   0.70917E+000  -0.20967E+001   0.00000E+000
   0.73040E+000  -0.21920E+001   0.00000E+000
   0.75023E+000  -0.22854E+001   0.00000E+000
   0.76878E+000  -0.23770E+001   0.00000E+000
   0.78613E+000  -0.24665E+001   0.00000E+000
   0.80241E+000  -0.25541E+001   0.00000E+000
   0.81772E+000  -0.26397E+001   0.00000E+000
   0.83217E+000  -0.27234E+001   0.00000E+000
   0.84587E+000  -0.28052E+001   0.00000E+000
   0.85894E+000  -0.28853E+001   0.00000E+000
   0.87153E+000  -0.29638E+001   0.00000E+000
   0.88382E+000  -0.30409E+001   0.00000E+000
   0.89601E+000  -0.31168E+001   0.00000E+000
   0.90837E+000  -0.31920E+001   0.00000E+000
   0.00000E+000   0.00000E+000   0.00000E+000
   0.28507E-001  -0.94565E-001   0.00000E+000
   0.60526E-001  -0.19915E+000   0.00000E+000
   0.96243E-001  -0.31089E+000   0.00000E+000
   0.13507E+000  -0.42686E+000   0.00000E+000
   0.17596E+000  -0.54466E+000   0.00000E+000
   0.21776E+000  -0.66269E+000   0.00000E+000
   0.25950E+000  -0.77998E+000   0.00000E+000
   0.30043E+000  -0.89602E+000   0.00000E+000
   0.34005E+000  -0.10106E+001   0.00000E+000
   0.37805E+000  -0.11236E+001   0.00000E+000
   0.41425E+000  -0.12349E+001   0.00000E+000
   0.44858E+000  -0.13447E+001   0.00000E+000
   0.48101E+000  -0.14528E+001   0.00000E+000
   0.51156E+000  -0.15593E+001   0.00000E+000
   0.54029E+000  -0.16641E+001   0.00000E+000
   0.56726E+000  -0.17673E+001   0.00000E+000
   0.59255E+000  -0.18687E+001   0.00000E+000
   0.61624E+000  -0.19683E+001   0.00000E+000
   0.63843E+000  -0.20661E+001   0.00000E+000
   0.65920E+000  -0.21621E+001   0.00000E+000
   0.67865E+000  -0.22561E+001   0.00000E+000
   0.69686E+000  -0.23481E+001   0.00000E+000
   0.71393E+000  -0.24382E+001   0.00000E+000
   0.72996E+000  -0.25262E+001   0.00000E+000
   0.74503E+000  -0.26122E+001   0.00000E+000
   0.75924E+000  -0.26962E+001   0.00000E+000
   0.77271E+000  -0.27782E+001   0.00000E+000
   0.78555E+000  -0.28584E+001   0.00000E+000
   0.79791E+000  -0.29367E+001   0.00000E+000
   0.80998E+000  -0.30135E+001   0.00000E+000
   0.82197E+000  -0.30888E+001   0.00000E+000
   0.83418E+000  -0.31628E+001   0.00000E+000
   0.00000E+000   0.00000E+000   0.00000E+000
   0.23722E-001  -0.90386E-001   0.00000E+000
   0.50274E-001  -0.18961E+000   0.00000E+000
   0.79897E-001  -0.29569E+000   0.00000E+000
   0.11232E+000  -0.40648E+000   0.00000E+000
   0.14689E+000  -0.52003E+000   0.00000E+000
   0.18280E+000  -0.63485E+000   0.00000E+000
   0.21925E+000  -0.74988E+000   0.00000E+000
   0.25556E+000  -0.86445E+000   0.00000E+000
   0.29120E+000  -0.97813E+000   0.00000E+000
   0.32580E+000  -0.10907E+001   0.00000E+000
   0.35912E+000  -0.12019E+001   0.00000E+000
   0.39098E+000  -0.13118E+001   0.00000E+000
   0.42131E+000  -0.14202E+001   0.00000E+000
   0.45008E+000  -0.15271E+001   0.00000E+000
   0.47728E+000  -0.16324E+001   0.00000E+000
   0.50294E+000  -0.17361E+001   0.00000E+000
   0.52711E+000  -0.18381E+001   0.00000E+000
   0.54983E+000  -0.19383E+001   0.00000E+000
   0.57119E+000  -0.20366E+001   0.00000E+000
   0.59123E+000  -0.21331E+001   0.00000E+000
   0.61005E+000  -0.22276E+001   0.00000E+000
   0.62770E+000  -0.23202E+001   0.00000E+000
   0.64427E+000  -0.24107E+001   0.00000E+000
   0.65984E+000  -0.24991E+001   0.00000E+000
   0.67450E+000  -0.25854E+001   0.00000E+000
   0.68832E+000  -0.26697E+001   0.00000E+000
   0.70142E+000  -0.27519E+001   0.00000E+000
   0.71392E+000  -0.28321E+001   0.00000E+000
   0.72595E+000  -0.29103E+001   0.00000E+000
   0.73771E+000  -0.29867E+001   0.00000E+000
   0.74943E+000  -0.30612E+001   0.00000E+000
   0.76139E+000  -0.31341E+001   0.00000E+000
   0.00000E+000   0.00000E+000   0.00000E+000
   0.19669E-001  -0.86990E-001   0.00000E+000
   0.41682E-001  -0.18190E+000   0.00000E+000
   0.66276E-001  -0.28330E+000   0.00000E+000
   0.93340E-001  -0.38959E+000   0.00000E+000
   0.12248E+000  -0.49920E+000   0.00000E+000
   0.15311E+000  -0.61081E+000   0.00000E+000
   0.18463E+000  -0.72339E+000   0.00000E+000
   0.21646E+000  -0.83619E+000   0.00000E+000
   0.24810E+000  -0.94867E+000   0.00000E+000
   0.27917E+000  -0.10605E+001   0.00000E+000
   0.30938E+000  -0.11714E+001   0.00000E+000
   0.33853E+000  -0.12811E+001   0.00000E+000
   0.36650E+000  -0.13896E+001   0.00000E+000
   0.39320E+000  -0.14967E+001   0.00000E+000
   0.41859E+000  -0.16023E+001   0.00000E+000
   0.44267E+000  -0.17064E+001   0.00000E+000
   0.46544E+000  -0.18088E+001   0.00000E+000
   0.48695E+000  -0.19095E+001   0.00000E+000
   0.50722E+000  -0.20083E+001   0.00000E+000
   0.52631E+000  -0.21053E+001   0.00000E+000
   0.54428E+000  -0.22003E+001   0.00000E+000
   0.56117E+000  -0.22933E+001   0.00000E+000
   0.57706E+000  -0.23842E+001   0.00000E+000
   0.59201E+000  -0.24730E+001   0.00000E+000
   0.60610E+000  -0.25596E+001   0.00000E+000
   0.61941E+000  -0.26442E+001   0.00000E+000
   0.63203E+000  -0.27265E+001   0.00000E+000
   0.64408E+000  -0.28067E+001   0.00000E+000
   0.65571E+000  -0.28847E+001   0.00000E+000
   0.66709E+000  -0.29606E+001   0.00000E+000
   0.67845E+000  -0.30344E+001   0.00000E+000
   0.69008E+000  -0.31061E+001   0.00000E+000
   0.00000E+000   0.00000E+000   0.00000E+000
   0.16142E-001  -0.84146E-001   0.00000E+000
   0.34270E-001  -0.17549E+000   0.00000E+000
   0.54597E-001  -0.27298E+000   0.00000E+000
   0.77093E-001  -0.37538E+000   0.00000E+000
   0.10151E+000  -0.48143E+000   0.00000E+000
   0.12745E+000  -0.58999E+000   0.00000E+000
   0.15445E+000  -0.70010E+000   0.00000E+000
   0.18203E+000  -0.81100E+000   0.00000E+000
   0.20976E+000  -0.92209E+000   0.00000E+000
   0.23727E+000  -0.10329E+001   0.00000E+000
   0.26429E+000  -0.11432E+001   0.00000E+000
   0.29058E+000  -0.12526E+001   0.00000E+000
   0.31599E+000  -0.13610E+001   0.00000E+000
   0.34042E+000  -0.14682E+001   0.00000E+000
   0.36378E+000  -0.15740E+001   0.00000E+000
   0.38605E+000  -0.16783E+001   0.00000E+000
   0.40722E+000  -0.17810E+001   0.00000E+000
   0.42729E+000  -0.18821E+001   0.00000E+000
   0.44628E+000  -0.19813E+001   0.00000E+000
   0.46422E+000  -0.20787E+001   0.00000E+000
   0.48115E+000  -0.21741E+001   0.00000E+000
   0.49712E+000  -0.22675E+001   0.00000E+000
   0.51217E+000  -0.23588E+001   0.00000E+000
   0.52636E+000  -0.24479E+001   0.00000E+000
   0.53976E+000  -0.25349E+001   0.00000E+000
   0.55244E+000  -0.26196E+001   0.00000E+000
   0.56449E+000  -0.27021E+001   0.00000E+000
   0.57602E+000  -0.27822E+001   0.00000E+000
   0.58716E+000  -0.28600E+001   0.00000E+000
   0.59809E+000  -0.29355E+001   0.00000E+000
   0.60902E+000  -0.30084E+001   0.00000E+000
   0.62023E+000  -0.30789E+001   0.00000E+000
   0.00000E+000   0.00000E+000   0.00000E+000
   0.13002E-001  -0.81705E-001   0.00000E+000
   0.27722E-001  -0.17005E+000   0.00000E+000
   0.44339E-001  -0.26423E+000   0.00000E+000
   0.62863E-001  -0.36327E+000   0.00000E+000
   0.83136E-001  -0.46615E+000   0.00000E+000
   0.10488E+000  -0.57190E+000   0.00000E+000
   0.12774E+000  -0.67963E+000   0.00000E+000
   0.15134E+000  -0.78861E+000   0.00000E+000
   0.17532E+000  -0.89821E+000   0.00000E+000
   0.19934E+000  -0.10080E+001   0.00000E+000
   0.22314E+000  -0.11175E+001   0.00000E+000
   0.24649E+000  -0.12264E+001   0.00000E+000
   0.26923E+000  -0.13345E+001   0.00000E+000
   0.29123E+000  -0.14416E+001   0.00000E+000
   0.31241E+000  -0.15474E+001   0.00000E+000
   0.33270E+000  -0.16519E+001   0.00000E+000
   0.35208E+000  -0.17549E+001   0.00000E+000
   0.37053E+000  -0.18562E+001   0.00000E+000
   0.38807E+000  -0.19558E+001   0.00000E+000
   0.40470E+000  -0.20535E+001   0.00000E+000
   0.42044E+000  -0.21493E+001   0.00000E+000
   0.43534E+000  -0.22430E+001   0.00000E+000
   0.44942E+000  -0.23346E+001   0.00000E+000
   0.46274E+000  -0.24241E+001   0.00000E+000
   0.47535E+000  -0.25113E+001   0.00000E+000
   0.48732E+000  -0.25962E+001   0.00000E+000
   0.49872E+000  -0.26787E+001   0.00000E+000
   0.50965E+000  -0.27588E+001   0.00000E+000
   0.52025E+000  -0.28364E+001   0.00000E+000
   0.53067E+000  -0.29113E+001   0.00000E+000
   0.54110E+000  -0.29835E+001   0.00000E+000
   0.55181E+000  -0.30528E+001   0.00000E+000
   0.00000E+000   0.00000E+000   0.00000E+000
   0.10152E-001  -0.79563E-001   0.00000E+000
   0.21816E-001  -0.16533E+000   0.00000E+000
   0.35138E-001  -0.25667E+000   0.00000E+000
   0.50139E-001  -0.35281E+000   0.00000E+000
   0.66718E-001  -0.45291E+000   0.00000E+000
   0.84677E-001  -0.55610E+000   0.00000E+000
   0.10375E+000  -0.66161E+000   0.00000E+000
   0.12363E+000  -0.76873E+000   0.00000E+000
   0.14403E+000  -0.87685E+000   0.00000E+000
   0.16466E+000  -0.98544E+000   0.00000E+000
   0.18527E+000  -0.10941E+001   0.00000E+000
   0.20566E+000  -0.12024E+001   0.00000E+000
   0.22566E+000  -0.13102E+001   0.00000E+000
   0.24514E+000  -0.14170E+001   0.00000E+000
   0.26401E+000  -0.15228E+001   0.00000E+000
   0.28219E+000  -0.16274E+001   0.00000E+000
   0.29964E+000  -0.17305E+001   0.00000E+000
   0.31635E+000  -0.18320E+001   0.00000E+000
   0.33229E+000  -0.19318E+001   0.00000E+000
   0.34747E+000  -0.20298E+001   0.00000E+000
   0.36190E+000  -0.21259E+001   0.00000E+000
   0.37561E+000  -0.22199E+001   0.00000E+000
   0.38862E+000  -0.23118E+001   0.00000E+000
   0.40097E+000  -0.24015E+001   0.00000E+000
   0.41271E+000  -0.24889E+001   0.00000E+000
   0.42389E+000  -0.25739E+001   0.00000E+000
   0.43457E+000  -0.26565E+001   0.00000E+000
   0.44486E+000  -0.27365E+001   0.00000E+000
   0.45486E+000  -0.28138E+001   0.00000E+000
   0.46471E+000  -0.28883E+001   0.00000E+000
   0.47459E+000  -0.29598E+001   0.00000E+000
   0.48471E+000  -0.30280E+001   0.00000E+000
   0.00000E+000   0.00000E+000   0.00000E+000
   0.75193E-002  -0.77651E-001   0.00000E+000
   0.16391E-001  -0.16117E+000   0.00000E+000
   0.26725E-001  -0.25007E+000   0.00000E+000
   0.38543E-001  -0.34369E+000   0.00000E+000
   0.51777E-001  -0.44134E+000   0.00000E+000
   0.66281E-001  -0.54226E+000   0.00000E+000
   0.81853E-001  -0.64574E+000   0.00000E+000
   0.98257E-001  -0.75112E+000   0.00000E+000
   0.11525E+000  -0.85779E+000   0.00000E+000
   0.13260E+000  -0.96524E+000   0.00000E+000
   0.15008E+000  -0.10730E+001   0.00000E+000
   0.16752E+000  -0.11807E+001   0.00000E+000
   0.18475E+000  -0.12880E+001   0.00000E+000
   0.20165E+000  -0.13946E+001   0.00000E+000
   0.21813E+000  -0.15002E+001   0.00000E+000
   0.23410E+000  -0.16047E+001   0.00000E+000
   0.24953E+000  -0.17079E+001   0.00000E+000
   0.26437E+000  -0.18095E+001   0.00000E+000
   0.27861E+000  -0.19095E+001   0.00000E+000
   0.29224E+000  -0.20077E+001   0.00000E+000
   0.30526E+000  -0.21040E+001   0.00000E+000
   0.31769E+000  -0.21982E+001   0.00000E+000
   0.32954E+000  -0.22903E+001   0.00000E+000
   0.34085E+000  -0.23802E+001   0.00000E+000
   0.35164E+000  -0.24678E+001   0.00000E+000
   0.36197E+000  -0.25529E+001   0.00000E+000
   0.37189E+000  -0.26355E+001   0.00000E+000
   0.38147E+000  -0.27155E+001   0.00000E+000
   0.39083E+000  -0.27926E+001   0.00000E+000
   0.40006E+000  -0.28666E+001   0.00000E+000
   0.40933E+000  -0.29375E+001   0.00000E+000
   0.41882E+000  -0.30047E+001   0.00000E+000
   0.00000E+000   0.00000E+000   0.00000E+000
   0.50482E-002  -0.75915E-001   0.00000E+000
   0.11320E-001  -0.15746E+000   0.00000E+000
   0.18894E-001  -0.24422E+000   0.00000E+000