# vtk DataFile Version 3.0
Dataset convertido do arquivo q64.out                                                                         
ASCII

DATASET UNSTRUCTURED_GRID
POINTS      4225 float
    0.00000E+00    0.10000E+01    0.00000E+00
    0.15625E-01    0.10000E+01    0.00000E+00
    0.31250E-01    0.10000E+01    0.00000E+00
    0.46875E-01    0.10000E+01    0.00000E+00
    0.62500E-01    0.10000E+01    0.00000E+00
    0.78125E-01    0.10000E+01    0.00000E+00
    0.93750E-01    0.10000E+01    0.00000E+00
    0.10938E+00    0.10000E+01    0.00000E+00
    0.12500E+00    0.10000E+01    0.00000E+00
    0.14062E+00    0.10000E+01    0.00000E+00
    0.15625E+00    0.10000E+01    0.00000E+00
    0.17188E+00    0.10000E+01    0.00000E+00
    0.18750E+00    0.10000E+01    0.00000E+00
    0.20312E+00    0.10000E+01    0.00000E+00
    0.21875E+00    0.10000E+01    0.00000E+00
    0.23438E+00    0.10000E+01    0.00000E+00
    0.25000E+00    0.10000E+01    0.00000E+00
    0.26562E+00    0.10000E+01    0.00000E+00
    0.28125E+00    0.10000E+01    0.00000E+00
    0.29688E+00    0.10000E+01    0.00000E+00
    0.31250E+00    0.10000E+01    0.00000E+00
    0.32812E+00    0.10000E+01    0.00000E+00
    0.34375E+00    0.10000E+01    0.00000E+00
    0.35938E+00    0.10000E+01    0.00000E+00
    0.37500E+00    0.10000E+01    0.00000E+00
    0.39062E+00    0.10000E+01    0.00000E+00
    0.40625E+00    0.10000E+01    0.00000E+00
    0.42188E+00    0.10000E+01    0.00000E+00
    0.43750E+00    0.10000E+01    0.00000E+00
    0.45312E+00    0.10000E+01    0.00000E+00
    0.46875E+00    0.10000E+01    0.00000E+00
    0.48438E+00    0.10000E+01    0.00000E+00
    0.50000E+00    0.10000E+01    0.00000E+00
    0.51562E+00    0.10000E+01    0.00000E+00
    0.53125E+00    0.10000E+01    0.00000E+00
    0.54688E+00    0.10000E+01    0.00000E+00
    0.56250E+00    0.10000E+01    0.00000E+00
    0.57812E+00    0.10000E+01    0.00000E+00
    0.59375E+00    0.10000E+01    0.00000E+00
    0.60938E+00    0.10000E+01    0.00000E+00
    0.62500E+00    0.10000E+01    0.00000E+00
    0.64062E+00    0.10000E+01    0.00000E+00
    0.65625E+00    0.10000E+01    0.00000E+00
    0.67188E+00    0.10000E+01    0.00000E+00
    0.68750E+00    0.10000E+01    0.00000E+00
    0.70312E+00    0.10000E+01    0.00000E+00
    0.71875E+00    0.10000E+01    0.00000E+00
    0.73438E+00    0.10000E+01    0.00000E+00
    0.75000E+00    0.10000E+01    0.00000E+00
    0.76562E+00    0.10000E+01    0.00000E+00
    0.78125E+00    0.10000E+01    0.00000E+00
    0.79688E+00    0.10000E+01    0.00000E+00
    0.81250E+00    0.10000E+01    0.00000E+00
    0.82812E+00    0.10000E+01    0.00000E+00
    0.84375E+00    0.10000E+01    0.00000E+00
    0.85938E+00    0.10000E+01    0.00000E+00
    0.87500E+00    0.10000E+01    0.00000E+00
    0.89062E+00    0.10000E+01    0.00000E+00
    0.90625E+00    0.10000E+01    0.00000E+00
    0.92188E+00    0.10000E+01    0.00000E+00
    0.93750E+00    0.10000E+01    0.00000E+00
    0.95312E+00    0.10000E+01    0.00000E+00
    0.96875E+00    0.10000E+01    0.00000E+00
    0.98438E+00    0.10000E+01    0.00000E+00
    0.10000E+01    0.10000E+01    0.00000E+00
    0.00000E+00    0.98438E+00    0.00000E+00
    0.15625E-01    0.98438E+00    0.00000E+00
    0.31250E-01    0.98438E+00    0.00000E+00
    0.46875E-01    0.98438E+00    0.00000E+00
    0.62500E-01    0.98438E+00    0.00000E+00
    0.78125E-01    0.98438E+00    0.00000E+00
    0.93750E-01    0.98438E+00    0.00000E+00
    0.10938E+00    0.98438E+00    0.00000E+00
    0.12500E+00    0.98438E+00    0.00000E+00
    0.14062E+00    0.98438E+00    0.00000E+00
    0.15625E+00    0.98438E+00    0.00000E+00
    0.17188E+00    0.98438E+00    0.00000E+00
    0.18750E+00    0.98438E+00    0.00000E+00
    0.20312E+00    0.98438E+00    0.00000E+00
    0.21875E+00    0.98438E+00    0.00000E+00
    0.23438E+00    0.98438E+00    0.00000E+00
    0.25000E+00    0.98438E+00    0.00000E+00
    0.26562E+00    0.98438E+00    0.00000E+00
    0.28125E+00    0.98438E+00    0.00000E+00
    0.29688E+00    0.98438E+00    0.00000E+00
    0.31250E+00    0.98438E+00    0.00000E+00
    0.32812E+00    0.98438E+00    0.00000E+00
    0.34375E+00    0.98438E+00    0.00000E+00
    0.35938E+00    0.98438E+00    0.00000E+00
    0.37500E+00    0.98438E+00    0.00000E+00
    0.39062E+00    0.98438E+00    0.00000E+00
    0.40625E+00    0.98438E+00    0.00000E+00
    0.42188E+00    0.98438E+00    0.00000E+00
    0.43750E+00    0.98438E+00    0.00000E+00
    0.45312E+00    0.98438E+00    0.00000E+00
    0.46875E+00    0.98438E+00    0.00000E+00
    0.48438E+00    0.98438E+00    0.00000E+00
    0.50000E+00    0.98438E+00    0.00000E+00
    0.51562E+00    0.98438E+00    0.00000E+00
    0.53125E+00    0.98438E+00    0.00000E+00
    0.54688E+00    0.98438E+00    0.00000E+00
    0.56250E+00    0.98438E+00    0.00000E+00
    0.57812E+00    0.98438E+00    0.00000E+00
    0.59375E+00    0.98438E+00    0.00000E+00
    0.60938E+00    0.98438E+00    0.00000E+00
    0.62500E+00    0.98438E+00    0.00000E+00
    0.64062E+00    0.98438E+00    0.00000E+00
    0.65625E+00    0.98438E+00    0.00000E+00
    0.67188E+00    0.98438E+00    0.00000E+00
    0.68750E+00    0.98438E+00    0.00000E+00
    0.70312E+00    0.98438E+00    0.00000E+00
    0.71875E+00    0.98438E+00    0.00000E+00
    0.73438E+00    0.98438E+00    0.00000E+00
    0.75000E+00    0.98438E+00    0.00000E+00
    0.76562E+00    0.98438E+00    0.00000E+00
    0.78125E+00    0.98438E+00    0.00000E+00
    0.79688E+00    0.98438E+00    0.00000E+00
    0.81250E+00    0.98438E+00    0.00000E+00
    0.82812E+00    0.98438E+00    0.00000E+00
    0.84375E+00    0.98438E+00    0.00000E+00
    0.85938E+00    0.98438E+00    0.00000E+00
    0.87500E+00    0.98438E+00    0.00000E+00
    0.89062E+00    0.98438E+00    0.00000E+00
    0.90625E+00    0.98438E+00    0.00000E+00
    0.92188E+00    0.98438E+00    0.00000E+00
    0.93750E+00    0.98438E+00    0.00000E+00
    0.95312E+00    0.98438E+00    0.00000E+00
    0.96875E+00    0.98438E+00    0.00000E+00
    0.98438E+00    0.98438E+00    0.00000E+00
    0.10000E+01    0.98438E+00    0.00000E+00
    0.00000E+00    0.96875E+00    0.00000E+00
    0.15625E-01    0.96875E+00    0.00000E+00
    0.31250E-01    0.96875E+00    0.00000E+00
    0.46875E-01    0.96875E+00    0.00000E+00
    0.62500E-01    0.96875E+00    0.00000E+00
    0.78125E-01    0.96875E+00    0.00000E+00
    0.93750E-01    0.96875E+00    0.00000E+00
    0.10938E+00    0.96875E+00    0.00000E+00
    0.12500E+00    0.96875E+00    0.00000E+00
    0.14062E+00    0.96875E+00    0.00000E+00
    0.15625E+00    0.96875E+00    0.00000E+00
    0.17188E+00    0.96875E+00    0.00000E+00
    0.18750E+00    0.96875E+00    0.00000E+00
    0.20312E+00    0.96875E+00    0.00000E+00
    0.21875E+00    0.96875E+00    0.00000E+00
    0.23438E+00    0.96875E+00    0.00000E+00
    0.25000E+00    0.96875E+00    0.00000E+00
    0.26562E+00    0.96875E+00    0.00000E+00
    0.28125E+00    0.96875E+00    0.00000E+00
    0.29688E+00    0.96875E+00    0.00000E+00
    0.31250E+00    0.96875E+00    0.00000E+00
    0.32812E+00    0.96875E+00    0.00000E+00
    0.34375E+00    0.96875E+00    0.00000E+00
    0.35938E+00    0.96875E+00    0.00000E+00
    0.37500E+00    0.96875E+00    0.00000E+00
    0.39062E+00    0.96875E+00    0.00000E+00
    0.40625E+00    0.96875E+00    0.00000E+00
    0.42188E+00    0.96875E+00    0.00000E+00
    0.43750E+00    0.96875E+00    0.00000E+00
    0.45312E+00    0.96875E+00    0.00000E+00
    0.46875E+00    0.96875E+00    0.00000E+00
    0.48438E+00    0.96875E+00    0.00000E+00
    0.50000E+00    0.96875E+00    0.00000E+00
    0.51562E+00    0.96875E+00    0.00000E+00
    0.53125E+00    0.96875E+00    0.00000E+00
    0.54688E+00    0.96875E+00    0.00000E+00
    0.56250E+00    0.96875E+00    0.00000E+00
    0.57812E+00    0.96875E+00    0.00000E+00
    0.59375E+00    0.96875E+00    0.00000E+00
    0.60938E+00    0.96875E+00    0.00000E+00
    0.62500E+00    0.96875E+00    0.00000E+00
    0.64062E+00    0.96875E+00    0.00000E+00
    0.65625E+00    0.96875E+00    0.00000E+00
    0.67188E+00    0.96875E+00    0.00000E+00
    0.68750E+00    0.96875E+00    0.00000E+00
    0.70312E+00    0.96875E+00    0.00000E+00
    0.71875E+00    0.96875E+00    0.00000E+00
    0.73438E+00    0.96875E+00    0.00000E+00
    0.75000E+00    0.96875E+00    0.00000E+00
    0.76562E+00    0.96875E+00    0.00000E+00
    0.78125E+00    0.96875E+00    0.00000E+00
    0.79688E+00    0.96875E+00    0.00000E+00
    0.81250E+00    0.96875E+00    0.00000E+00
    0.82812E+00    0.96875E+00    0.00000E+00
    0.84375E+00    0.96875E+00    0.00000E+00
    0.85938E+00    0.96875E+00    0.00000E+00
    0.87500E+00    0.96875E+00    0.00000E+00
    0.89062E+00    0.96875E+00    0.00000E+00
    0.90625E+00    0.96875E+00    0.00000E+00
    0.92188E+00    0.96875E+00    0.00000E+00
    0.93750E+00    0.96875E+00    0.00000E+00
    0.95312E+00    0.96875E+00    0.00000E+00
    0.96875E+00    0.96875E+00    0.00000E+00
    0.98438E+00    0.96875E+00    0.00000E+00
    0.10000E+01    0.96875E+00    0.00000E+00
    0.00000E+00    0.95312E+00    0.00000E+00
    0.15625E-01    0.95312E+00    0.00000E+00
    0.31250E-01    0.95312E+00    0.00000E+00
    0.46875E-01    0.95312E+00    0.00000E+00
    0.62500E-01    0.95312E+00    0.00000E+00
    0.78125E-01    0.95312E+00    0.00000E+00
    0.93750E-01    0.95312E+00    0.00000E+00
    0.10938E+00    0.95312E+00    0.00000E+00
    0.12500E+00    0.95312E+00    0.00000E+00
    0.14062E+00    0.95312E+00    0.00000E+00
    0.15625E+00    0.95312E+00    0.00000E+00
    0.17188E+00    0.95312E+00    0.00000E+00
    0.18750E+00    0.95312E+00    0.00000E+00
    0.20312E+00    0.95312E+00    0.00000E+00
    0.21875E+00    0.95312E+00    0.00000E+00
    0.23438E+00    0.95312E+00    0.00000E+00
    0.25000E+00    0.95312E+00    0.00000E+00
    0.26562E+00    0.95312E+00    0.00000E+00
[...]
POINT_DATA       4225
VECTORS deslocamento double
   0.00000E+000   0.00000E+000   0.00000E+000
   0.12857E+000  -0.15036E+000   0.00000E+000
   0.21366E+000  -0.24594E+000   0.00000E+000
   0.27954E+000  -0.33207E+000   0.00000E+000
   0.33625E+000  -0.40976E+000   0.00000E+000
   0.38684E+000  -0.48243E+000   0.00000E+000
   0.43296E+000  -0.55140E+000   0.00000E+000
   0.47555E+000  -0.61761E+000   0.00000E+000
   0.51524E+000  -0.68163E+000   0.00000E+000
   0.55246E+000  -0.74388E+000   0.00000E+000
   0.58755E+000  -0.80467E+000   0.00000E+000
   0.62075E+000  -0.86422E+000   0.00000E+000
   0.65225E+000  -0.92270E+000   0.00000E+000
   0.68221E+000  -0.98027E+000   0.00000E+000
   0.71076E+000  -0.10370E+001   0.00000E+000
   0.73801E+000  -0.10931E+001   0.00000E+000
   0.76404E+000  -0.11485E+001   0.00000E+000
   0.78893E+000  -0.12033E+001   0.00000E+000
   0.81275E+000  -0.12576E+001   0.00000E+000
   0.83555E+000  -0.13114E+001   0.00000E+000
   0.85739E+000  -0.13647E+001   0.00000E+000
   0.87831E+000  -0.14176E+001   0.00000E+000
   0.89836E+000  -0.14701E+001   0.00000E+000
   0.91756E+000  -0.15222E+001   0.00000E+000
   0.93596E+000  -0.15739E+001   0.00000E+000
   0.95358E+000  -0.16253E+001   0.00000E+000
   0.97046E+000  -0.16763E+001   0.00000E+000
   0.98661E+000  -0.17269E+001   0.00000E+000
   0.10021E+001  -0.17772E+001   0.00000E+000
   0.10169E+001  -0.18271E+001   0.00000E+000
   0.10310E+001  -0.18767E+001   0.00000E+000
   0.10446E+001  -0.19259E+001   0.00000E+000
   0.10575E+001  -0.19748E+001   0.00000E+000
   0.10699E+001  -0.20233E+001   0.00000E+000
   0.10817E+001  -0.20714E+001   0.00000E+000
   0.10930E+001  -0.21192E+001   0.00000E+000
   0.11037E+001  -0.21666E+001   0.00000E+000
   0.11140E+001  -0.22136E+001   0.00000E+000
   0.11239E+001  -0.22603E+001   0.00000E+000
   0.11332E+001  -0.23065E+001   0.00000E+000
   0.11422E+001  -0.23523E+001   0.00000E+000
   0.11508E+001  -0.23978E+001   0.00000E+000
   0.11590E+001  -0.24428E+001   0.00000E+000
   0.11668E+001  -0.24875E+001   0.00000E+000
   0.11743E+001  -0.25317E+001   0.00000E+000
   0.11815E+001  -0.25755E+001   0.00000E+000
   0.11885E+001  -0.26189E+001   0.00000E+000
   0.11951E+001  -0.26619E+001   0.00000E+000
   0.12016E+001  -0.27045E+001   0.00000E+000
   0.12078E+001  -0.27467E+001   0.00000E+000
   0.12139E+001  -0.27885E+001   0.00000E+000
   0.12199E+001  -0.28299E+001   0.00000E+000
   0.12257E+001  -0.28709E+001   0.00000E+000
   0.12314E+001  -0.29116E+001   0.00000E+000
   0.12371E+001  -0.29519E+001   0.00000E+000
   0.12427E+001  -0.29919E+001   0.00000E+000
   0.12483E+001  -0.30316E+001   0.00000E+000
   0.12540E+001  -0.30711E+001   0.00000E+000
   0.12596E+001  -0.31103E+001   0.00000E+000
   0.12654E+001  -0.31493E+001   0.00000E+000
   0.12712E+001  -0.31882E+001   0.00000E+000
   0.12771E+001  -0.32270E+001   0.00000E+000
   0.12831E+001  -0.32658E+001   0.00000E+000
   0.12892E+001  -0.33046E+001   0.00000E+000
   0.12953E+001  -0.33434E+001   0.00000E+000
   0.00000E+000   0.00000E+000   0.00000E+000
   0.64605E-001  -0.10107E+000   0.00000E+000
   0.14197E+000  -0.20580E+000   0.00000E+000
   0.20955E+000  -0.29458E+000   0.00000E+000
   0.26882E+000  -0.37518E+000   0.00000E+000
   0.32176E+000  -0.44993E+000   0.00000E+000
   0.36987E+000  -0.52060E+000   0.00000E+000
   0.41412E+000  -0.58818E+000   0.00000E+000
   0.45521E+000  -0.65337E+000   0.00000E+000
   0.49364E+000  -0.71662E+000   0.00000E+000
   0.52975E+000  -0.77828E+000   0.00000E+000
   0.56385E+000  -0.83861E+000   0.00000E+000
   0.59614E+000  -0.89780E+000   0.00000E+000
   0.62680E+000  -0.95602E+000   0.00000E+000
   0.65598E+000  -0.10134E+001   0.00000E+000
   0.68379E+000  -0.10700E+001   0.00000E+000
   0.71033E+000  -0.11259E+001   0.00000E+000
   0.73570E+000  -0.11812E+001   0.00000E+000
   0.75995E+000  -0.12359E+001   0.00000E+000
   0.78317E+000  -0.12901E+001   0.00000E+000
   0.80540E+000  -0.13439E+001   0.00000E+000
   0.82669E+000  -0.13972E+001   0.00000E+000
   0.84709E+000  -0.14500E+001   0.00000E+000
   0.86663E+000  -0.15025E+001   0.00000E+000
   0.88537E+000  -0.15546E+001   0.00000E+000
   0.90332E+000  -0.16062E+001   0.00000E+000
   0.92052E+000  -0.16575E+001   0.00000E+000
   0.93700E+000  -0.17085E+001   0.00000E+000
   0.95279E+000  -0.17590E+001   0.00000E+000
   0.96791E+000  -0.18093E+001   0.00000E+000
   0.98239E+000  -0.18591E+001   0.00000E+000
   0.99625E+000  -0.19086E+001   0.00000E+000
   0.10095E+001  -0.19577E+001   0.00000E+000
   0.10222E+001  -0.20064E+001   0.00000E+000
   0.10344E+001  -0.20548E+001   0.00000E+000
   0.10460E+001  -0.21028E+001   0.00000E+000
   0.10571E+001  -0.21504E+001   0.00000E+000
   0.10678E+001  -0.21976E+001   0.00000E+000
   0.10780E+001  -0.22445E+001   0.00000E+000
   0.10877E+001  -0.22909E+001   0.00000E+000
   0.10970E+001  -0.23369E+001   0.00000E+000
   0.11060E+001  -0.23825E+001   0.00000E+000
   0.11145E+001  -0.24277E+001   0.00000E+000
   0.11228E+001  -0.24725E+001   0.00000E+000
   0.11307E+001  -0.25169E+001   0.00000E+000
   0.11382E+001  -0.25608E+001   0.00000E+000
   0.11456E+001  -0.26043E+001   0.00000E+000
   0.11526E+001  -0.26474E+001   0.00000E+000
   0.11594E+001  -0.26901E+001   0.00000E+000
   0.11661E+001  -0.27324E+001   0.00000E+000
   0.11725E+001  -0.27743E+001   0.00000E+000
   0.11788E+001  -0.28157E+001   0.00000E+000
   0.11850E+001  -0.28568E+001   0.00000E+000
   0.11910E+001  -0.28975E+001   0.00000E+000
   0.11970E+001  -0.29379E+001   0.00000E+000
   0.12029E+001  -0.29779E+001   0.00000E+000
   0.12087E+001  -0.30176E+001   0.00000E+000
   0.12146E+001  -0.30570E+001   0.00000E+000
   0.12205E+001  -0.30962E+001   0.00000E+000
   0.12264E+001  -0.31352E+001   0.00000E+000
   0.12323E+001  -0.31741E+001   0.00000E+000
   0.12383E+001  -0.32128E+001   0.00000E+000
   0.12443E+001  -0.32516E+001   0.00000E+000
   0.12503E+001  -0.32903E+001   0.00000E+000
   0.12564E+001  -0.33292E+001   0.00000E+000
   0.00000E+000   0.00000E+000   0.00000E+000
   0.48396E-001  -0.81698E-001   0.00000E+000
   0.10355E+000  -0.17275E+000   0.00000E+000
   0.16188E+000  -0.26077E+000   0.00000E+000
   0.21721E+000  -0.34206E+000   0.00000E+000
   0.26859E+000  -0.41812E+000   0.00000E+000
   0.31618E+000  -0.49007E+000   0.00000E+000
   0.36040E+000  -0.55884E+000   0.00000E+000
   0.40169E+000  -0.62509E+000   0.00000E+000
   0.44042E+000  -0.68929E+000   0.00000E+000
   0.47688E+000  -0.75180E+000   0.00000E+000
   0.51134E+000  -0.81290E+000   0.00000E+000
   0.54399E+000  -0.87279E+000   0.00000E+000
   0.57500E+000  -0.93165E+000   0.00000E+000
   0.60451E+000  -0.98959E+000   0.00000E+000
   0.63264E+000  -0.10467E+001   0.00000E+000
   0.65949E+000  -0.11032E+001   0.00000E+000
   0.68515E+000  -0.11589E+001   0.00000E+000
   0.70969E+000  -0.12141E+001   0.00000E+000
   0.73318E+000  -0.12688E+001   0.00000E+000
   0.75568E+000  -0.13229E+001   0.00000E+000
   0.77723E+000  -0.13766E+001   0.00000E+000
   0.79789E+000  -0.14299E+001   0.00000E+000
   0.81769E+000  -0.14827E+001   0.00000E+000
   0.83667E+000  -0.15351E+001   0.00000E+000
   0.85487E+000  -0.15871E+001   0.00000E+000
   0.87233E+000  -0.16387E+001   0.00000E+000
   0.88906E+000  -0.16899E+001   0.00000E+000
   0.90511E+000  -0.17408E+001   0.00000E+000
   0.92049E+000  -0.17913E+001   0.00000E+000
   0.93524E+000  -0.18414E+001   0.00000E+000
   0.94937E+000  -0.18911E+001   0.00000E+000
   0.96292E+000  -0.19405E+001   0.00000E+000
   0.97590E+000  -0.19895E+001   0.00000E+000
   0.98834E+000  -0.20381E+001   0.00000E+000
   0.10003E+001  -0.20863E+001   0.00000E+000
   0.10117E+001  -0.21341E+001   0.00000E+000
   0.10226E+001  -0.21815E+001   0.00000E+000
   0.10331E+001  -0.22285E+001   0.00000E+000
   0.10432E+001  -0.22751E+001   0.00000E+000
   0.10528E+001  -0.23213E+001   0.00000E+000
   0.10621E+001  -0.23671E+001   0.00000E+000
   0.10710E+001  -0.24125E+001   0.00000E+000
   0.10795E+001  -0.24574E+001   0.00000E+000
   0.10877E+001  -0.25019E+001   0.00000E+000
   0.10956E+001  -0.25460E+001   0.00000E+000
   0.11033E+001  -0.25896E+001   0.00000E+000
   0.11107E+001  -0.26328E+001   0.00000E+000
   0.11178E+001  -0.26756E+001   0.00000E+000
   0.11247E+001  -0.27180E+001   0.00000E+000
   0.11315E+001  -0.27599E+001   0.00000E+000
   0.11380E+001  -0.28014E+001   0.00000E+000
   0.11445E+001  -0.28426E+001   0.00000E+000
   0.11508E+001  -0.28833E+001   0.00000E+000
   0.11570E+001  -0.29237E+001   0.00000E+000
   0.11631E+001  -0.29637E+001   0.00000E+000
   0.11692E+001  -0.30034E+001   0.00000E+000
   0.11752E+001  -0.30429E+001   0.00000E+000
   0.11812E+001  -0.30821E+001   0.00000E+000
   0.11872E+001  -0.31211E+001   0.00000E+000
   0.11933E+001  -0.31599E+001   0.00000E+000
   0.11993E+001  -0.31986E+001   0.00000E+000
   0.12054E+001  -0.32374E+001   0.00000E+000
   0.12114E+001  -0.32761E+001   0.00000E+000
   0.12176E+001  -0.33149E+001   0.00000E+000
   0.00000E+000   0.00000E+000   0.00000E+000
   0.38887E-001  -0.71528E-001   0.00000E+000
   0.83032E-001  -0.15181E+000   0.00000E+000
   0.13075E+000  -0.23374E+000   0.00000E+000
   0.17938E+000  -0.31316E+000   0.00000E+000
   0.22665E+000  -0.38888E+000   0.00000E+000
   0.27175E+000  -0.46120E+000   0.00000E+000
   0.31444E+000  -0.53059E+000   0.00000E+000
   0.35480E+000  -0.59755E+000   0.00000E+000
   0.39295E+000  -0.66247E+000   0.00000E+000
   0.42908E+000  -0.72568E+000   0.00000E+000
   0.46335E+000  -0.78745E+000   0.00000E+000
   0.49591E+000  -0.84797E+000   0.00000E+000
   0.52691E+000  -0.90741E+000   0.00000E+000
   0.55645E+000  -0.96591E+000   0.00000E+000
   0.58465E+000  -0.10236E+001   0.00000E+000
   0.61159E+000  -0.10805E+001   0.00000E+000
   0.63735E+000  -0.11367E+001   0.00000E+000
   0.66201E+000  -0.11924E+001   0.00000E+000
   0.68563E+000  -0.12474E+001   0.00000E+000
   0.70827E+000  -0.13020E+001   0.00000E+000
   0.72996E+000  -0.13560E+001   0.00000E+000
   0.75077E+000  -0.14096E+001   0.00000E+000
   0.77073E+000  -0.14628E+001   0.00000E+000
   0.78988E+000  -0.15155E+001   0.00000E+000
   0.80825E+000  -0.15679E+001   0.00000E+000
   0.82589E+000  -0.16198E+001   0.00000E+000
   0.84281E+000  -0.16713E+001   0.00000E+000
   0.85904E+000  -0.17225E+001   0.00000E+000
   0.87462E+000  -0.17732E+001   0.00000E+000
   0.88958E+000  -0.18236E+001   0.00000E+000
   0.90392E+000  -0.18736E+001   0.00000E+000
   0.91769E+000  -0.19232E+001   0.00000E+000
   0.93089E+000  -0.19724E+001   0.00000E+000
   0.94356E+000  -0.20213E+001   0.00000E+000
   0.95572E+000  -0.20697E+001   0.00000E+000
   0.96738E+000  -0.21177E+001   0.00000E+000
   0.97858E+000  -0.21653E+001   0.00000E+000
   0.98932E+000  -0.22125E+001   0.00000E+000
   0.99964E+000  -0.22593E+001   0.00000E+000
   0.10096E+001  -0.23057E+001   0.00000E+000
   0.10191E+001  -0.23516E+001   0.00000E+000
   0.10282E+001  -0.23971E+001   0.00000E+000
   0.10370E+001  -0.24422E+001   0.00000E+000
   0.10455E+001  -0.24868E+001   0.00000E+000
   0.10537E+001  -0.25310E+001   0.00000E+000
   0.10616E+001  -0.25748E+001   0.00000E+000
   0.10693E+001  -0.26181E+001   0.00000E+000
   0.10767E+001  -0.26610E+001   0.00000E+000
   0.10839E+001  -0.27034E+001   0.00000E+000
   0.10908E+001  -0.27455E+001   0.00000E+000
   0.10977E+001  -0.27870E+001   0.00000E+000
   0.11043E+001  -0.28282E+001   0.00000E+000
   0.11108E+001  -0.28690E+001   0.00000E+000
   0.11172E+001  -0.29095E+001   0.00000E+000
   0.11235E+001  -0.29495E+001   0.00000E+000
   0.11297E+001  -0.29893E+001   0.00000E+000
   0.11359E+001  -0.30287E+001   0.00000E+000
   0.11420E+001  -0.30679E+001   0.00000E+000
   0.11481E+001  -0.31069E+001   0.00000E+000
   0.11542E+001  -0.31457E+001   0.00000E+000
   0.11603E+001  -0.31844E+001   0.00000E+000
   0.11664E+001  -0.32231E+001   0.00000E+000
   0.11725E+001  -0.32618E+001   0.00000E+000
   0.11787E+001  -0.33006E+001   0.00000E+000
   0.00000E+000   0.00000E+000   0.00000E+000
   0.32930E-001  -0.65055E-001   0.00000E+000
   0.69625E-001  -0.13761E+000   0.00000E+000
   0.10971E+000  -0.21345E+000   0.00000E+000
   0.15167E+000  -0.28924E+000   0.00000E+000
   0.19398E+000  -0.36324E+000   0.00000E+000
   0.23550E+000  -0.43489E+000   0.00000E+000
   0.27567E+000  -0.50420E+000   0.00000E+000
   0.31421E+000  -0.57138E+000   0.00000E+000
   0.35107E+000  -0.63668E+000   0.00000E+000
   0.38626E+000  -0.70035E+000   0.00000E+000
   0.41985E+000  -0.76260E+000   0.00000E+000
   0.45191E+000  -0.82361E+000   0.00000E+000
   0.48254E+000  -0.88354E+000   0.00000E+000
   0.51182E+000  -0.94252E+000   0.00000E+000
   0.53982E+000  -0.10006E+001   0.00000E+000
   0.56663E+000  -0.10580E+001   0.00000E+000
   0.59231E+000  -0.11147E+001   0.00000E+000
   0.61693E+000  -0.11707E+001   0.00000E+000
   0.64053E+000  -0.12262E+001   0.00000E+000
   0.66317E+000  -0.12811E+001   0.00000E+000
   0.68489E+000  -0.13355E+001   0.00000E+000
   0.70574E+000  -0.13895E+001   0.00000E+000
   0.72577E+000  -0.14430E+001   0.00000E+000
   0.74499E+000  -0.14960E+001   0.00000E+000
   0.76346E+000  -0.15487E+001   0.00000E+000
   0.78119E+000  -0.16009E+001   0.00000E+000
   0.79822E+000  -0.16527E+001   0.00000E+000
   0.81458E+000  -0.17042E+001   0.00000E+000
   0.83030E+000  -0.17552E+001   0.00000E+000
   0.84539E+000  -0.18058E+001   0.00000E+000
   0.85989E+000  -0.18561E+001   0.00000E+000
   0.87381E+000  -0.19059E+001   0.00000E+000
   0.88719E+000  -0.19554E+001   0.00000E+000
   0.90003E+000  -0.20044E+001   0.00000E+000
   0.91238E+000  -0.20530E+001   0.00000E+000
   0.92423E+000  -0.21013E+001   0.00000E+000
   0.93562E+000  -0.21491E+001   0.00000E+000
   0.94657E+000  -0.21965E+001   0.00000E+000
   0.95710E+000  -0.22434E+001   0.00000E+000
   0.96722E+000  -0.22900E+001   0.00000E+000
   0.97696E+000  -0.23361E+001   0.00000E+000
   0.98633E+000  -0.23818E+001   0.00000E+000
   0.99537E+000  -0.24270E+001   0.00000E+000
   0.10041E+001  -0.24717E+001   0.00000E+000
   0.10125E+001  -0.25161E+001   0.00000E+000
   0.10206E+001  -0.25599E+001   0.00000E+000
   0.10285E+001  -0.26034E+001   0.00000E+000
   0.10361E+001  -0.26463E+001   0.00000E+000
   0.10435E+001  -0.26889E+001   0.00000E+000
   0.10506E+001  -0.27310E+001   0.00000E+000
   0.10576E+001  -0.27726E+001   0.00000E+000
   0.10645E+001  -0.28139E+001   0.00000E+000
   0.10711E+001  -0.28548E+001   0.00000E+000
   0.10777E+001  -0.28952E+001   0.00000E+000
   0.10841E+001  -0.29353E+001   0.00000E+000
   0.10905E+001  -0.29751E+001   0.00000E+000
   0.10967E+001  -0.30146E+001   0.00000E+000
   0.11029E+001  -0.30538E+001   0.00000E+000
   0.11091E+001  -0.30927E+001   0.00000E+000
   0.11152E+001  -0.31315E+001   0.00000E+000
   0.11213E+001  -0.31702E+001   0.00000E+000
   0.11275E+001  -0.32088E+001   0.00000E+000
   0.11336E+001  -0.32475E+001   0.00000E+000
   0.11398E+001  -0.32862E+001   0.00000E+000
   0.00000E+000   0.00000E+000   0.00000E+000
   0.28619E-001  -0.60507E-001   0.00000E+000
   0.60104E-001  -0.12738E+000   0.00000E+000
   0.94423E-001  -0.19798E+000   0.00000E+000
   0.13085E+000  -0.26986E+000   0.00000E+000
   0.16835E+000  -0.34135E+000   0.00000E+000
   0.20600E+000  -0.41155E+000   0.00000E+000
   0.24313E+000  -0.48013E+000   0.00000E+000
   0.27933E+000  -0.54702E+000   0.00000E+000
   0.31438E+000  -0.61231E+000   0.00000E+000
   0.34817E+000  -0.67614E+000   0.00000E+000
   0.38066E+000  -0.73865E+000   0.00000E+000
   0.41186E+000  -0.79999E+000   0.00000E+000
   0.44181E+000  -0.86028E+000   0.00000E+000
   0.47055E+000  -0.91963E+000   0.00000E+000
   0.49813E+000  -0.97813E+000   0.00000E+000
   0.52460E+000  -0.10359E+001   0.00000E+000
   0.55001E+000  -0.10929E+001   0.00000E+000
   0.57441E+000  -0.11493E+001   0.00000E+000
   0.59785E+000  -0.12051E+001   0.00000E+000
   0.62037E+000  -0.12604E+001   0.00000E+000
   0.64200E+000  -0.13152E+001   0.00000E+000
   0.66279E+000  -0.13695E+001   0.00000E+000
   0.68278E+000  -0.14233E+001   0.00000E+000
   0.70199E+000  -0.14766E+001   0.00000E+000
   0.72046E+000  -0.15296E+001   0.00000E+000
   0.73822E+000  -0.15821E+001   0.00000E+000
   0.75529E+000  -0.16342E+001   0.00000E+000
   0.77171E+000  -0.16859E+001   0.00000E+000
   0.78749E+000  -0.17372E+001   0.00000E+000
   0.80266E+000  -0.17881E+001   0.00000E+000
   0.81725E+000  -0.18385E+001   0.00000E+000
   0.83128E+000  -0.18886E+001   0.00000E+000
   0.84477E+000  -0.19383E+001   0.00000E+000
   0.85774E+000  -0.19876E+001   0.00000E+000
   0.87021E+000  -0.20364E+001   0.00000E+000
   0.88221E+000  -0.20848E+001   0.00000E+000
   0.89375E+000  -0.21328E+001   0.00000E+000
   0.90485E+000  -0.21804E+001   0.00000E+000
   0.91553E+000  -0.22276E+001   0.00000E+000
   0.92581E+000  -0.22743E+001   0.00000E+000
   0.93572E+000  -0.23205E+001   0.00000E+000
   0.94527E+000  -0.23664E+001   0.00000E+000
   0.95447E+000  -0.24117E+001   0.00000E+000
   0.96335E+000  -0.24566E+001   0.00000E+000
   0.97193E+000  -0.25011E+001   0.00000E+000
   0.98022E+000  -0.25451E+001   0.00000E+000
   0.98824E+000  -0.25886E+001   0.00000E+000
   0.99601E+000  -0.26317E+001   0.00000E+000
   0.10036E+001  -0.26743E+001   0.00000E+000
   0.10109E+001  -0.27165E+001   0.00000E+000
   0.10180E+001  -0.27582E+001   0.00000E+000
   0.10250E+001  -0.27996E+001   0.00000E+000
   0.10318E+001  -0.28405E+001   0.00000E+000
   0.10384E+001  -0.28810E+001   0.00000E+000
   0.10450E+001  -0.29211E+001   0.00000E+000
   0.10514E+001  -0.29609E+001   0.00000E+000
   0.10577E+001  -0.30004E+001   0.00000E+000
   0.10640E+001  -0.30396E+001   0.00000E+000
   0.10702E+001  -0.30786E+001   0.00000E+000
   0.10764E+001  -0.31173E+001   0.00000E+000
   0.10825E+001  -0.31560E+001   0.00000E+000
   0.10887E+001  -0.31945E+001   0.00000E+000
   0.10948E+001  -0.32331E+001   0.00000E+000
   0.11010E+001  -0.32717E+001   0.00000E+000
   0.00000E+000   0.00000E+000   0.00000E+000
   0.25296E-001  -0.57085E-001   0.00000E+000
   0.52842E-001  -0.11964E+000   0.00000E+000
   0.82742E-001  -0.18591E+000   0.00000E+000
   0.11464E+000  -0.25411E+000   0.00000E+000
   0.14789E+000  -0.32284E+000   0.00000E+000
   0.18181E+000  -0.39115E+000   0.00000E+000
   0.21579E+000  -0.45851E+000   0.00000E+000
   0.24940E+000  -0.52468E+000   0.00000E+000
   0.28233E+000  -0.58960E+000   0.00000E+000
   0.31440E+000  -0.65330E+000   0.00000E+000
   0.34549E+000  -0.71584E+000   0.00000E+000
   0.37555E+000  -0.77731E+000   0.00000E+000
   0.40456E+000  -0.83780E+000   0.00000E+000
   0.43253E+000  -0.89739E+000   0.00000E+000
   0.45947E+000  -0.95617E+000   0.00000E+000
   0.48541E+000  -0.10142E+001   0.00000E+000
   0.51039E+000  -0.10716E+001   0.00000E+000
   0.53442E+000  -0.11283E+001   0.00000E+000
   0.55756E+000  -0.11844E+001   0.00000E+000
   0.57983E+000  -0.12400E+001   0.00000E+000
   0.60126E+000  -0.12951E+001   0.00000E+000
   0.62189E+000  -0.13496E+001   0.00000E+000
   0.64174E+000  -0.14037E+001   0.00000E+000
   0.66085E+000  -0.14574E+001   0.00000E+000
   0.67925E+000  -0.15106E+001   0.00000E+000
   0.69695E+000  -0.15634E+001   0.00000E+000
   0.71399E+000  -0.16157E+001   0.00000E+000
   0.73039E+000  -0.16677E+001   0.00000E+000
   0.74618E+000  -0.17192E+001   0.00000E+000
   0.76138E+000  -0.17704E+001   0.00000E+000
   0.77600E+000  -0.18211E+001   0.00000E+000
   0.79007E+000  -0.18714E+001   0.00000E+000
   0.80362E+000  -0.19213E+001   0.00000E+000
   0.81666E+000  -0.19708E+001   0.00000E+000
   0.82921E+000  -0.20198E+001   0.00000E+000
   0.84130E+000  -0.20684E+001   0.00000E+000
   0.85293E+000  -0.21166E+001   0.00000E+000
   0.86414E+000  -0.21644E+001   0.00000E+000
   0.87493E+000  -0.22117E+001   0.00000E+000
   0.88533E+000  -0.22586E+001   0.00000E+000
   0.89535E+000  -0.23050E+001   0.00000E+000
   0.90502E+000  -0.23510E+001   0.00000E+000