# vtk DataFile Version 3.0
Dataset convertido do arquivo t128.out                                                                        
ASCII

DATASET UNSTRUCTURED_GRID
POINTS      4225 float
    0.00000E+00    0.10000E+01    0.00000E+00
    0.15625E-01    0.10000E+01    0.00000E+00
    0.31250E-01    0.10000E+01    0.00000E+00
    0.46875E-01    0.10000E+01    0.00000E+00
    0.62500E-01    0.10000E+01    0.00000E+00
    0.78125E-01    0.10000E+01    0.00000E+00
    0.93750E-01    0.10000E+01    0.00000E+00
    0.10938E+00    0.10000E+01    0.00000E+00
    0.12500E+00    0.10000E+01    0.00000E+00
    0.14062E+00    0.10000E+01    0.00000E+00
    0.15625E+00    0.10000E+01    0.00000E+00
    0.17188E+00    0.10000E+01    0.00000E+00
    0.18750E+00    0.10000E+01    0.00000E+00
    0.20312E+00    0.10000E+01    0.00000E+00
    0.21875E+00    0.10000E+01    0.00000E+00
    0.23438E+00    0.10000E+01    0.00000E+00
    0.25000E+00    0.10000E+01    0.00000E+00
    0.26562E+00    0.10000E+01    0.00000E+00
    0.28125E+00    0.10000E+01    0.00000E+00
    0.29688E+00    0.10000E+01    0.00000E+00
    0.31250E+00    0.10000E+01    0.00000E+00
    0.32812E+00    0.10000E+01    0.00000E+00
    0.34375E+00    0.10000E+01    0.00000E+00
    0.35938E+00    0.10000E+01    0.00000E+00
    0.37500E+00    0.10000E+01    0.00000E+00
    0.39062E+00    0.10000E+01    0.00000E+00
    0.40625E+00    0.10000E+01    0.00000E+00
    0.42188E+00    0.10000E+01    0.00000E+00
    0.43750E+00    0.10000E+01    0.00000E+00
    0.45312E+00    0.10000E+01    0.00000E+00
    0.46875E+00    0.10000E+01    0.00000E+00
    0.48438E+00    0.10000E+01    0.00000E+00
    0.50000E+00    0.10000E+01    0.00000E+00
    0.51562E+00    0.10000E+01    0.00000E+00
    0.53125E+00    0.10000E+01    0.00000E+00
    0.54688E+00    0.10000E+01    0.00000E+00
    0.56250E+00    0.10000E+01    0.00000E+00
    0.57812E+00    0.10000E+01    0.00000E+00
    0.59375E+00    0.10000E+01    0.00000E+00
    0.60938E+00    0.10000E+01    0.00000E+00
    0.62500E+00    0.10000E+01    0.00000E+00
    0.64062E+00    0.10000E+01    0.00000E+00
    0.65625E+00    0.10000E+01    0.00000E+00
    0.67188E+00    0.10000E+01    0.00000E+00
    0.68750E+00    0.10000E+01    0.00000E+00
    0.70312E+00    0.10000E+01    0.00000E+00
    0.71875E+00    0.10000E+01    0.00000E+00
    0.73438E+00    0.10000E+01    0.00000E+00
    0.75000E+00    0.10000E+01    0.00000E+00
    0.76562E+00    0.10000E+01    0.00000E+00
    0.78125E+00    0.10000E+01    0.00000E+00
    0.79688E+00    0.10000E+01    0.00000E+00
    0.81250E+00    0.10000E+01    0.00000E+00
    0.82812E+00    0.10000E+01    0.00000E+00
    0.84375E+00    0.10000E+01    0.00000E+00
    0.85938E+00    0.10000E+01    0.00000E+00
    0.87500E+00    0.10000E+01    0.00000E+00
    0.89062E+00    0.10000E+01    0.00000E+00
    0.90625E+00    0.10000E+01    0.00000E+00
    0.92188E+00    0.10000E+01    0.00000E+00
    0.93750E+00    0.10000E+01    0.00000E+00
    0.95312E+00    0.10000E+01    0.00000E+00
    0.96875E+00    0.10000E+01    0.00000E+00
    0.98438E+00    0.10000E+01    0.00000E+00
    0.10000E+01    0.10000E+01    0.00000E+00
    0.00000E+00    0.98438E+00    0.00000E+00
    0.15625E-01    0.98438E+00    0.00000E+00
    0.31250E-01    0.98438E+00    0.00000E+00
    0.46875E-01    0.98438E+00    0.00000E+00
    0.62500E-01    0.98438E+00    0.00000E+00
    0.78125E-01    0.98438E+00    0.00000E+00
    0.93750E-01    0.98438E+00    0.00000E+00
    0.10938E+00    0.98438E+00    0.00000E+00
    0.12500E+00    0.98438E+00    0.00000E+00
    0.14062E+00    0.98438E+00    0.00000E+00
    0.15625E+00    0.98438E+00    0.00000E+00
    0.17188E+00    0.98438E+00    0.00000E+00
    0.18750E+00    0.98438E+00    0.00000E+00
    0.20312E+00    0.98438E+00    0.00000E+00
    0.21875E+00    0.98438E+00    0.00000E+00
    0.23438E+00    0.98438E+00    0.00000E+00
    0.25000E+00    0.98438E+00    0.00000E+00
    0.26562E+00    0.98438E+00    0.00000E+00
    0.28125E+00    0.98438E+00    0.00000E+00
    0.29688E+00    0.98438E+00    0.00000E+00
    0.31250E+00    0.98438E+00    0.00000E+00
    0.32812E+00    0.98438E+00    0.00000E+00
    0.34375E+00    0.98438E+00    0.00000E+00
    0.35938E+00    0.98438E+00    0.00000E+00
    0.37500E+00    0.98438E+00    0.00000E+00
    0.39062E+00    0.98438E+00    0.00000E+00
    0.40625E+00    0.98438E+00    0.00000E+00
    0.42188E+00    0.98438E+00    0.00000E+00
    0.43750E+00    0.98438E+00    0.00000E+00
    0.45312E+00    0.98438E+00    0.00000E+00
    0.46875E+00    0.98438E+00    0.00000E+00
    0.48438E+00    0.98438E+00    0.00000E+00
    0.50000E+00    0.98438E+00    0.00000E+00
    0.51562E+00    0.98438E+00    0.00000E+00
    0.53125E+00    0.98438E+00    0.00000E+00
    0.54688E+00    0.98438E+00    0.00000E+00
    0.56250E+00    0.98438E+00    0.00000E+00
    0.57812E+00    0.98438E+00    0.00000E+00
    0.59375E+00    0.98438E+00    0.00000E+00
    0.60938E+00    0.98438E+00    0.00000E+00
    0.62500E+00    0.98438E+00    0.00000E+00
    0.64062E+00    0.98438E+00    0.00000E+00
    0.65625E+00    0.98438E+00    0.00000E+00
    0.67188E+00    0.98438E+00    0.00000E+00
    0.68750E+00    0.98438E+00    0.00000E+00
    0.70312E+00    0.98438E+00    0.00000E+00
    0.71875E+00    0.98438E+00    0.00000E+00
    0.73438E+00    0.98438E+00    0.00000E+00
    0.75000E+00    0.98438E+00    0.00000E+00
    0.76562E+00    0.98438E+00    0.00000E+00
    0.78125E+00    0.98438E+00    0.00000E+00
    0.79688E+00    0.98438E+00    0.00000E+00
    0.81250E+00    0.98438E+00    0.00000E+00
    0.82812E+00    0.98438E+00    0.00000E+00
    0.84375E+00    0.98438E+00    0.00000E+00
    0.85938E+00    0.98438E+00    0.00000E+00
    0.87500E+00    0.98438E+00    0.00000E+00
    0.89062E+00    0.98438E+00    0.00000E+00
    0.90625E+00    0.98438E+00    0.00000E+00
    0.92188E+00    0.98438E+00    0.00000E+00
    0.93750E+00    0.98438E+00    0.00000E+00
    0.95312E+00    0.98438E+00    0.00000E+00
    0.96875E+00    0.98438E+00    0.00000E+00
    0.98438E+00    0.98438E+00    0.00000E+00
    0.10000E+01    0.98438E+00    0.00000E+00
    0.00000E+00    0.96875E+00    0.00000E+00
    0.15625E-01    0.96875E+00    0.00000E+00
    0.31250E-01    0.96875E+00    0.00000E+00
    0.46875E-01    0.96875E+00    0.00000E+00
    0.62500E-01    0.96875E+00    0.00000E+00
    0.78125E-01    0.96875E+00    0.00000E+00
    0.93750E-01    0.96875E+00    0.00000E+00
    0.10938E+00    0.96875E+00    0.00000E+00
    0.12500E+00    0.96875E+00    0.00000E+00
    0.14062E+00    0.96875E+00    0.00000E+00
    0.15625E+00    0.96875E+00    0.00000E+00
    0.17188E+00    0.96875E+00    0.00000E+00
    0.18750E+00    0.96875E+00    0.00000E+00
    0.20312E+00    0.96875E+00    0.00000E+00
    0.21875E+00    0.96875E+00    0.00000E+00
    0.23438E+00    0.96875E+00    0.00000E+00
    0.25000E+00    0.96875E+00    0.00000E+00
    0.26562E+00    0.96875E+00    0.00000E+00
    0.28125E+00    0.96875E+00    0.00000E+00
    0.29688E+00    0.96875E+00    0.00000E+00
    0.31250E+00    0.96875E+00    0.00000E+00
    0.32812E+00    0.96875E+00    0.00000E+00
    0.34375E+00    0.96875E+00    0.00000E+00
    0.35938E+00    0.96875E+00    0.00000E+00
    0.37500E+00    0.96875E+00    0.00000E+00
    0.39062E+00    0.96875E+00    0.00000E+00
    0.40625E+00    0.96875E+00    0.00000E+00
    0.42188E+00    0.96875E+00    0.00000E+00
    0.43750E+00    0.96875E+00    0.00000E+00
    0.45312E+00    0.96875E+00    0.00000E+00
    0.46875E+00    0.96875E+00    0.00000E+00
    0.48438E+00    0.96875E+00    0.00000E+00
    0.50000E+00    0.96875E+00    0.00000E+00
    0.51562E+00    0.96875E+00    0.00000E+00
    0.53125E+00    0.96875E+00    0.00000E+00
    0.54688E+00    0.96875E+00    0.00000E+00
    0.56250E+00    0.96875E+00    0.00000E+00
    0.57812E+00    0.96875E+00    0.00000E+00
    0.59375E+00    0.96875E+00    0.00000E+00
    0.60938E+00    0.96875E+00    0.00000E+00
    0.62500E+00    0.96875E+00    0.00000E+00
    0.64062E+00    0.96875E+00    0.00000E+00
    0.65625E+00    0.96875E+00    0.00000E+00
    0.67188E+00    0.96875E+00    0.00000E+00
    0.68750E+00    0.96875E+00    0.00000E+00
    0.70312E+00    0.96875E+00    0.00000E+00
    0.71875E+00    0.96875E+00    0.00000E+00
    0.73438E+00    0.96875E+00    0.00000E+00
    0.75000E+00    0.96875E+00    0.00000E+00
    0.76562E+00    0.96875E+00    0.00000E+00
    0.78125E+00    0.96875E+00    0.00000E+00
    0.79688E+00    0.96875E+00    0.00000E+00
    0.81250E+00    0.96875E+00    0.00000E+00
    0.82812E+00    0.96875E+00    0.00000E+00
    0.84375E+00    0.96875E+00    0.00000E+00
    0.85938E+00    0.96875E+00    0.00000E+00
    0.87500E+00    0.96875E+00    0.00000E+00
    0.89062E+00    0.96875E+00    0.00000E+00
    0.90625E+00    0.96875E+00    0.00000E+00
    0.92188E+00    0.96875E+00    0.00000E+00
    0.93750E+00    0.96875E+00    0.00000E+00
    0.95312E+00    0.96875E+00    0.00000E+00
    0.96875E+00    0.96875E+00    0.00000E+00
    0.98438E+00    0.96875E+00    0.00000E+00
    0.10000E+01    0.96875E+00    0.00000E+00
    0.00000E+00    0.95312E+00    0.00000E+00
    0.15625E-01    0.95312E+00    0.00000E+00
    0.31250E-01    0.95312E+00    0.00000E+00
    0.46875E-01    0.95312E+00    0.00000E+00
    0.62500E-01    0.95312E+00    0.00000E+00
    0.78125E-01    0.95312E+00    0.00000E+00
    0.93750E-01    0.95312E+00    0.00000E+00
    0.10938E+00    0.95312E+00    0.00000E+00
    0.12500E+00    0.95312E+00    0.00000E+00
    0.14062E+00    0.95312E+00    0.00000E+00
    0.15625E+00    0.95312E+00    0.00000E+00
    0.17188E+00    0.95312E+00    0.00000E+00
    0.18750E+00    0.95312E+00    0.00000E+00
    0.20312E+00    0.95312E+00    0.00000E+00
    0.21875E+00    0.95312E+00    0.00000E+00
    0.23438E+00    0.95312E+00    0.00000E+00
    0.25000E+00    0.95312E+00    0.00000E+00
    0.26562E+00    0.95312E+00    0.00000E+00
[...]
POINT_DATA       4225
VECTORS deslocamento double
   0.00000E+000   0.00000E+000   0.00000E+000
   0.12451E+000  -0.14733E+000   0.00000E+000
   0.20905E+000  -0.24571E+000   0.00000E+000
   0.27653E+000  -0.33068E+000   0.00000E+000
   0.33416E+000  -0.40830E+000   0.00000E+000
   0.38527E+000  -0.48098E+000   0.00000E+000
   0.43166E+000  -0.55002E+000   0.00000E+000
   0.47440E+000  -0.61629E+000   0.00000E+000
   0.51416E+000  -0.68035E+000   0.00000E+000
   0.55142E+000  -0.74263E+000   0.00000E+000
   0.58652E+000  -0.80343E+000   0.00000E+000
   0.61973E+000  -0.86297E+000   0.00000E+000
   0.65122E+000  -0.92145E+000   0.00000E+000
   0.68118E+000  -0.97901E+000   0.00000E+000
   0.70972E+000  -0.10357E+001   0.00000E+000
   0.73695E+000  -0.10918E+001   0.00000E+000
   0.76297E+000  -0.11471E+001   0.00000E+000
   0.78784E+000  -0.12019E+001   0.00000E+000
   0.81165E+000  -0.12562E+001   0.00000E+000
   0.83444E+000  -0.13099E+001   0.00000E+000
   0.85626E+000  -0.13632E+001   0.00000E+000
   0.87717E+000  -0.14161E+001   0.00000E+000
   0.89720E+000  -0.14685E+001   0.00000E+000
   0.91639E+000  -0.15206E+001   0.00000E+000
   0.93477E+000  -0.15723E+001   0.00000E+000
   0.95238E+000  -0.16236E+001   0.00000E+000
   0.96924E+000  -0.16745E+001   0.00000E+000
   0.98539E+000  -0.17251E+001   0.00000E+000
   0.10008E+001  -0.17754E+001   0.00000E+000
   0.10156E+001  -0.18252E+001   0.00000E+000
   0.10298E+001  -0.18748E+001   0.00000E+000
   0.10433E+001  -0.19239E+001   0.00000E+000
   0.10562E+001  -0.19727E+001   0.00000E+000
   0.10686E+001  -0.20212E+001   0.00000E+000
   0.10804E+001  -0.20693E+001   0.00000E+000
   0.10917E+001  -0.21170E+001   0.00000E+000
   0.11024E+001  -0.21644E+001   0.00000E+000
   0.11127E+001  -0.22113E+001   0.00000E+000
   0.11225E+001  -0.22579E+001   0.00000E+000
   0.11319E+001  -0.23041E+001   0.00000E+000
   0.11409E+001  -0.23499E+001   0.00000E+000
   0.11494E+001  -0.23953E+001   0.00000E+000
   0.11576E+001  -0.24403E+001   0.00000E+000
   0.11655E+001  -0.24849E+001   0.00000E+000
   0.11730E+001  -0.25290E+001   0.00000E+000
   0.11802E+001  -0.25728E+001   0.00000E+000
   0.11871E+001  -0.26162E+001   0.00000E+000
   0.11938E+001  -0.26591E+001   0.00000E+000
   0.12003E+001  -0.27016E+001   0.00000E+000
   0.12065E+001  -0.27438E+001   0.00000E+000
   0.12126E+001  -0.27855E+001   0.00000E+000
   0.12186E+001  -0.28269E+001   0.00000E+000
   0.12244E+001  -0.28678E+001   0.00000E+000
   0.12301E+001  -0.29085E+001   0.00000E+000
   0.12358E+001  -0.29487E+001   0.00000E+000
   0.12414E+001  -0.29887E+001   0.00000E+000
   0.12470E+001  -0.30283E+001   0.00000E+000
   0.12527E+001  -0.30677E+001   0.00000E+000
   0.12584E+001  -0.31069E+001   0.00000E+000
   0.12641E+001  -0.31459E+001   0.00000E+000
   0.12699E+001  -0.31847E+001   0.00000E+000
   0.12758E+001  -0.32235E+001   0.00000E+000
   0.12818E+001  -0.32622E+001   0.00000E+000
   0.12879E+001  -0.33009E+001   0.00000E+000
   0.12940E+001  -0.33397E+001   0.00000E+000
   0.00000E+000   0.00000E+000   0.00000E+000
   0.66187E-001  -0.10101E+000   0.00000E+000
   0.14206E+000  -0.20373E+000   0.00000E+000
   0.20872E+000  -0.29285E+000   0.00000E+000
   0.26763E+000  -0.37347E+000   0.00000E+000
   0.32051E+000  -0.44837E+000   0.00000E+000
   0.36865E+000  -0.51915E+000   0.00000E+000
   0.41296E+000  -0.58683E+000   0.00000E+000
   0.45410E+000  -0.65207E+000   0.00000E+000
   0.49256E+000  -0.71536E+000   0.00000E+000
   0.52870E+000  -0.77704E+000   0.00000E+000
   0.56281E+000  -0.83737E+000   0.00000E+000
   0.59510E+000  -0.89656E+000   0.00000E+000
   0.62577E+000  -0.95475E+000   0.00000E+000
   0.65494E+000  -0.10121E+001   0.00000E+000
   0.68274E+000  -0.10687E+001   0.00000E+000
   0.70928E+000  -0.11245E+001   0.00000E+000
   0.73464E+000  -0.11798E+001   0.00000E+000
   0.75888E+000  -0.12345E+001   0.00000E+000
   0.78209E+000  -0.12887E+001   0.00000E+000
   0.80430E+000  -0.13424E+001   0.00000E+000
   0.82558E+000  -0.13956E+001   0.00000E+000
   0.84597E+000  -0.14485E+001   0.00000E+000
   0.86551E+000  -0.15009E+001   0.00000E+000
   0.88423E+000  -0.15529E+001   0.00000E+000
   0.90216E+000  -0.16045E+001   0.00000E+000
   0.91935E+000  -0.16558E+001   0.00000E+000
   0.93582E+000  -0.17067E+001   0.00000E+000
   0.95160E+000  -0.17572E+001   0.00000E+000
   0.96671E+000  -0.18074E+001   0.00000E+000
   0.98119E+000  -0.18572E+001   0.00000E+000
   0.99504E+000  -0.19066E+001   0.00000E+000
   0.10083E+001  -0.19557E+001   0.00000E+000
   0.10210E+001  -0.20043E+001   0.00000E+000
   0.10331E+001  -0.20527E+001   0.00000E+000
   0.10448E+001  -0.21006E+001   0.00000E+000
   0.10559E+001  -0.21482E+001   0.00000E+000
   0.10665E+001  -0.21953E+001   0.00000E+000
   0.10767E+001  -0.22421E+001   0.00000E+000
   0.10864E+001  -0.22885E+001   0.00000E+000
   0.10958E+001  -0.23344E+001   0.00000E+000
   0.11047E+001  -0.23800E+001   0.00000E+000
   0.11133E+001  -0.24252E+001   0.00000E+000
   0.11215E+001  -0.24699E+001   0.00000E+000
   0.11294E+001  -0.25142E+001   0.00000E+000
   0.11370E+001  -0.25581E+001   0.00000E+000
   0.11443E+001  -0.26016E+001   0.00000E+000
   0.11514E+001  -0.26446E+001   0.00000E+000
   0.11582E+001  -0.26872E+001   0.00000E+000
   0.11648E+001  -0.27295E+001   0.00000E+000
   0.11712E+001  -0.27713E+001   0.00000E+000
   0.11775E+001  -0.28127E+001   0.00000E+000
   0.11837E+001  -0.28537E+001   0.00000E+000
   0.11897E+001  -0.28944E+001   0.00000E+000
   0.11957E+001  -0.29347E+001   0.00000E+000
   0.12016E+001  -0.29746E+001   0.00000E+000
   0.12075E+001  -0.30143E+001   0.00000E+000
   0.12133E+001  -0.30537E+001   0.00000E+000
   0.12192E+001  -0.30928E+001   0.00000E+000
   0.12251E+001  -0.31318E+001   0.00000E+000
   0.12310E+001  -0.31706E+001   0.00000E+000
   0.12370E+001  -0.32093E+001   0.00000E+000
   0.12430E+001  -0.32480E+001   0.00000E+000
   0.12491E+001  -0.32867E+001   0.00000E+000
   0.12552E+001  -0.33254E+001   0.00000E+000
   0.00000E+000   0.00000E+000   0.00000E+000
   0.48133E-001  -0.82150E-001   0.00000E+000
   0.10410E+000  -0.17185E+000   0.00000E+000
   0.16204E+000  -0.25918E+000   0.00000E+000
   0.21693E+000  -0.34046E+000   0.00000E+000
   0.26799E+000  -0.41657E+000   0.00000E+000
   0.31540E+000  -0.48861E+000   0.00000E+000
   0.35952E+000  -0.55746E+000   0.00000E+000
   0.40077E+000  -0.62376E+000   0.00000E+000
   0.43947E+000  -0.68800E+000   0.00000E+000
   0.47592E+000  -0.75054E+000   0.00000E+000
   0.51037E+000  -0.81165E+000   0.00000E+000
   0.54301E+000  -0.87154E+000   0.00000E+000
   0.57402E+000  -0.93038E+000   0.00000E+000
   0.60352E+000  -0.98830E+000   0.00000E+000
   0.63165E+000  -0.10454E+001   0.00000E+000
   0.65849E+000  -0.11018E+001   0.00000E+000
   0.68414E+000  -0.11576E+001   0.00000E+000
   0.70867E+000  -0.12127E+001   0.00000E+000
   0.73215E+000  -0.12673E+001   0.00000E+000
   0.75463E+000  -0.13215E+001   0.00000E+000
   0.77617E+000  -0.13751E+001   0.00000E+000
   0.79682E+000  -0.14283E+001   0.00000E+000
   0.81661E+000  -0.14811E+001   0.00000E+000
   0.83558E+000  -0.15334E+001   0.00000E+000
   0.85378E+000  -0.15854E+001   0.00000E+000
   0.87122E+000  -0.16369E+001   0.00000E+000
   0.88795E+000  -0.16881E+001   0.00000E+000
   0.90398E+000  -0.17389E+001   0.00000E+000
   0.91936E+000  -0.17894E+001   0.00000E+000
   0.93409E+000  -0.18394E+001   0.00000E+000
   0.94822E+000  -0.18891E+001   0.00000E+000
   0.96176E+000  -0.19384E+001   0.00000E+000
   0.97473E+000  -0.19874E+001   0.00000E+000
   0.98717E+000  -0.20359E+001   0.00000E+000
   0.99908E+000  -0.20841E+001   0.00000E+000
   0.10105E+001  -0.21318E+001   0.00000E+000
   0.10214E+001  -0.21792E+001   0.00000E+000
   0.10319E+001  -0.22262E+001   0.00000E+000
   0.10420E+001  -0.22727E+001   0.00000E+000
   0.10516E+001  -0.23189E+001   0.00000E+000
   0.10609E+001  -0.23646E+001   0.00000E+000
   0.10698E+001  -0.24099E+001   0.00000E+000
   0.10783E+001  -0.24548E+001   0.00000E+000
   0.10865E+001  -0.24992E+001   0.00000E+000
   0.10944E+001  -0.25432E+001   0.00000E+000
   0.11021E+001  -0.25868E+001   0.00000E+000
   0.11094E+001  -0.26300E+001   0.00000E+000
   0.11166E+001  -0.26727E+001   0.00000E+000
   0.11235E+001  -0.27150E+001   0.00000E+000
   0.11303E+001  -0.27569E+001   0.00000E+000
   0.11368E+001  -0.27984E+001   0.00000E+000
   0.11433E+001  -0.28395E+001   0.00000E+000
   0.11496E+001  -0.28802E+001   0.00000E+000
   0.11558E+001  -0.29205E+001   0.00000E+000
   0.11619E+001  -0.29605E+001   0.00000E+000
   0.11680E+001  -0.30002E+001   0.00000E+000
   0.11740E+001  -0.30395E+001   0.00000E+000
   0.11800E+001  -0.30787E+001   0.00000E+000
   0.11860E+001  -0.31176E+001   0.00000E+000
   0.11920E+001  -0.31564E+001   0.00000E+000
   0.11981E+001  -0.31951E+001   0.00000E+000
   0.12041E+001  -0.32337E+001   0.00000E+000
   0.12102E+001  -0.32724E+001   0.00000E+000
   0.12163E+001  -0.33112E+001   0.00000E+000
   0.00000E+000   0.00000E+000   0.00000E+000
   0.38848E-001  -0.71765E-001   0.00000E+000
   0.83093E-001  -0.15137E+000   0.00000E+000
   0.13091E+000  -0.23266E+000   0.00000E+000
   0.17936E+000  -0.31180E+000   0.00000E+000
   0.22641E+000  -0.38748E+000   0.00000E+000
   0.27131E+000  -0.45981E+000   0.00000E+000
   0.31385E+000  -0.52924E+000   0.00000E+000
   0.35410E+000  -0.59623E+000   0.00000E+000
   0.39219E+000  -0.66118E+000   0.00000E+000
   0.42827E+000  -0.72442E+000   0.00000E+000
   0.46250E+000  -0.78619E+000   0.00000E+000
   0.49504E+000  -0.84670E+000   0.00000E+000
   0.52602E+000  -0.90613E+000   0.00000E+000
   0.55554E+000  -0.96461E+000   0.00000E+000
   0.58372E+000  -0.10223E+001   0.00000E+000
   0.61065E+000  -0.10791E+001   0.00000E+000
   0.63640E+000  -0.11354E+001   0.00000E+000
   0.66105E+000  -0.11910E+001   0.00000E+000
   0.68466E+000  -0.12460E+001   0.00000E+000
   0.70728E+000  -0.13005E+001   0.00000E+000
   0.72896E+000  -0.13545E+001   0.00000E+000
   0.74976E+000  -0.14081E+001   0.00000E+000
   0.76971E+000  -0.14612E+001   0.00000E+000
   0.78885E+000  -0.15139E+001   0.00000E+000
   0.80721E+000  -0.15662E+001   0.00000E+000
   0.82484E+000  -0.16180E+001   0.00000E+000
   0.84175E+000  -0.16695E+001   0.00000E+000
   0.85797E+000  -0.17206E+001   0.00000E+000
   0.87355E+000  -0.17713E+001   0.00000E+000
   0.88849E+000  -0.18217E+001   0.00000E+000
   0.90283E+000  -0.18716E+001   0.00000E+000
   0.91659E+000  -0.19212E+001   0.00000E+000
   0.92979E+000  -0.19703E+001   0.00000E+000
   0.94245E+000  -0.20191E+001   0.00000E+000
   0.95460E+000  -0.20675E+001   0.00000E+000
   0.96626E+000  -0.21155E+001   0.00000E+000
   0.97745E+000  -0.21630E+001   0.00000E+000
   0.98819E+000  -0.22102E+001   0.00000E+000
   0.99851E+000  -0.22569E+001   0.00000E+000
   0.10084E+001  -0.23032E+001   0.00000E+000
   0.10179E+001  -0.23491E+001   0.00000E+000
   0.10271E+001  -0.23946E+001   0.00000E+000
   0.10359E+001  -0.24396E+001   0.00000E+000
   0.10444E+001  -0.24842E+001   0.00000E+000
   0.10526E+001  -0.25283E+001   0.00000E+000
   0.10605E+001  -0.25720E+001   0.00000E+000
   0.10681E+001  -0.26153E+001   0.00000E+000
   0.10755E+001  -0.26581E+001   0.00000E+000
   0.10827E+001  -0.27005E+001   0.00000E+000
   0.10897E+001  -0.27425E+001   0.00000E+000
   0.10965E+001  -0.27840E+001   0.00000E+000
   0.11031E+001  -0.28251E+001   0.00000E+000
   0.11096E+001  -0.28659E+001   0.00000E+000
   0.11160E+001  -0.29063E+001   0.00000E+000
   0.11223E+001  -0.29463E+001   0.00000E+000
   0.11286E+001  -0.29860E+001   0.00000E+000
   0.11347E+001  -0.30254E+001   0.00000E+000
   0.11408E+001  -0.30645E+001   0.00000E+000
   0.11469E+001  -0.31035E+001   0.00000E+000
   0.11530E+001  -0.31422E+001   0.00000E+000
   0.11591E+001  -0.31809E+001   0.00000E+000
   0.11652E+001  -0.32195E+001   0.00000E+000
   0.11713E+001  -0.32581E+001   0.00000E+000
   0.11775E+001  -0.32968E+001   0.00000E+000
   0.00000E+000   0.00000E+000   0.00000E+000
   0.32882E-001  -0.65134E-001   0.00000E+000
   0.69630E-001  -0.13735E+000   0.00000E+000
   0.10972E+000  -0.21270E+000   0.00000E+000
   0.15164E+000  -0.28817E+000   0.00000E+000
   0.19384E+000  -0.36202E+000   0.00000E+000
   0.23523E+000  -0.43362E+000   0.00000E+000
   0.27527E+000  -0.50292E+000   0.00000E+000
   0.31370E+000  -0.57011E+000   0.00000E+000
   0.35048E+000  -0.63542E+000   0.00000E+000
   0.38560E+000  -0.69909E+000   0.00000E+000
   0.41913E+000  -0.76134E+000   0.00000E+000
   0.45116E+000  -0.82235E+000   0.00000E+000
   0.48175E+000  -0.88227E+000   0.00000E+000
   0.51100E+000  -0.94123E+000   0.00000E+000
   0.53898E+000  -0.99933E+000   0.00000E+000
   0.56577E+000  -0.10567E+001   0.00000E+000
   0.59143E+000  -0.11133E+001   0.00000E+000
   0.61603E+000  -0.11693E+001   0.00000E+000
   0.63962E+000  -0.12247E+001   0.00000E+000
   0.66224E+000  -0.12796E+001   0.00000E+000
   0.68395E+000  -0.13340E+001   0.00000E+000
   0.70479E+000  -0.13879E+001   0.00000E+000
   0.72480E+000  -0.14414E+001   0.00000E+000
   0.74402E+000  -0.14944E+001   0.00000E+000
   0.76247E+000  -0.15470E+001   0.00000E+000
   0.78020E+000  -0.15992E+001   0.00000E+000
   0.79722E+000  -0.16509E+001   0.00000E+000
   0.81357E+000  -0.17023E+001   0.00000E+000
   0.82928E+000  -0.17533E+001   0.00000E+000
   0.84436E+000  -0.18039E+001   0.00000E+000
   0.85885E+000  -0.18541E+001   0.00000E+000
   0.87277E+000  -0.19039E+001   0.00000E+000
   0.88614E+000  -0.19533E+001   0.00000E+000
   0.89898E+000  -0.20023E+001   0.00000E+000
   0.91132E+000  -0.20508E+001   0.00000E+000
   0.92317E+000  -0.20990E+001   0.00000E+000
   0.93455E+000  -0.21468E+001   0.00000E+000
   0.94550E+000  -0.21941E+001   0.00000E+000
   0.95602E+000  -0.22410E+001   0.00000E+000
   0.96614E+000  -0.22875E+001   0.00000E+000
   0.97587E+000  -0.23336E+001   0.00000E+000
   0.98524E+000  -0.23792E+001   0.00000E+000
   0.99427E+000  -0.24243E+001   0.00000E+000
   0.10030E+001  -0.24691E+001   0.00000E+000
   0.10114E+001  -0.25133E+001   0.00000E+000
   0.10195E+001  -0.25572E+001   0.00000E+000
   0.10274E+001  -0.26005E+001   0.00000E+000
   0.10350E+001  -0.26434E+001   0.00000E+000
   0.10423E+001  -0.26859E+001   0.00000E+000
   0.10495E+001  -0.27280E+001   0.00000E+000
   0.10565E+001  -0.27696E+001   0.00000E+000
   0.10633E+001  -0.28108E+001   0.00000E+000
   0.10700E+001  -0.28516E+001   0.00000E+000
   0.10766E+001  -0.28920E+001   0.00000E+000
   0.10830E+001  -0.29321E+001   0.00000E+000
   0.10893E+001  -0.29718E+001   0.00000E+000
   0.10956E+001  -0.30112E+001   0.00000E+000
   0.11018E+001  -0.30504E+001   0.00000E+000
   0.11079E+001  -0.30893E+001   0.00000E+000
   0.11141E+001  -0.31280E+001   0.00000E+000
   0.11202E+001  -0.31667E+001   0.00000E+000
   0.11263E+001  -0.32052E+001   0.00000E+000
   0.11325E+001  -0.32438E+001   0.00000E+000
   0.11387E+001  -0.32824E+001   0.00000E+000
   0.00000E+000   0.00000E+000   0.00000E+000
   0.28584E-001  -0.60489E-001   0.00000E+000
   0.60068E-001  -0.12718E+000   0.00000E+000
   0.94382E-001  -0.19744E+000   0.00000E+000
   0.13077E+000  -0.26902E+000   0.00000E+000
   0.16821E+000  -0.34031E+000   0.00000E+000
   0.20578E+000  -0.41042E+000   0.00000E+000
   0.24283E+000  -0.47894E+000   0.00000E+000
   0.27894E+000  -0.54581E+000   0.00000E+000
   0.31391E+000  -0.61109E+000   0.00000E+000
   0.34762E+000  -0.67491E+000   0.00000E+000
   0.38006E+000  -0.73742E+000   0.00000E+000
   0.41121E+000  -0.79874E+000   0.00000E+000
   0.44112E+000  -0.85901E+000   0.00000E+000
   0.46982E+000  -0.91834E+000   0.00000E+000
   0.49737E+000  -0.97682E+000   0.00000E+000
   0.52382E+000  -0.10345E+001   0.00000E+000
   0.54921E+000  -0.10915E+001   0.00000E+000
   0.57359E+000  -0.11479E+001   0.00000E+000
   0.59701E+000  -0.12037E+001   0.00000E+000
   0.61951E+000  -0.12589E+001   0.00000E+000
   0.64113E+000  -0.13137E+001   0.00000E+000
   0.66191E+000  -0.13679E+001   0.00000E+000
   0.68188E+000  -0.14217E+001   0.00000E+000
   0.70108E+000  -0.14750E+001   0.00000E+000
   0.71954E+000  -0.15279E+001   0.00000E+000
   0.73729E+000  -0.15803E+001   0.00000E+000
   0.75435E+000  -0.16324E+001   0.00000E+000
   0.77075E+000  -0.16840E+001   0.00000E+000
   0.78653E+000  -0.17353E+001   0.00000E+000
   0.80169E+000  -0.17861E+001   0.00000E+000
   0.81628E+000  -0.18365E+001   0.00000E+000
   0.83030E+000  -0.18866E+001   0.00000E+000
   0.84378E+000  -0.19362E+001   0.00000E+000
   0.85674E+000  -0.19854E+001   0.00000E+000
   0.86921E+000  -0.20342E+001   0.00000E+000
   0.88120E+000  -0.20826E+001   0.00000E+000
   0.89273E+000  -0.21305E+001   0.00000E+000
   0.90383E+000  -0.21781E+001   0.00000E+000
   0.91450E+000  -0.22252E+001   0.00000E+000
   0.92478E+000  -0.22718E+001   0.00000E+000
   0.93469E+000  -0.23180E+001   0.00000E+000
   0.94423E+000  -0.23638E+001   0.00000E+000
   0.95343E+000  -0.24091E+001   0.00000E+000
   0.96230E+000  -0.24539E+001   0.00000E+000
   0.97087E+000  -0.24983E+001   0.00000E+000
   0.97916E+000  -0.25423E+001   0.00000E+000
   0.98718E+000  -0.25858E+001   0.00000E+000
   0.99495E+000  -0.26288E+001   0.00000E+000
   0.10025E+001  -0.26714E+001   0.00000E+000
   0.10098E+001  -0.27135E+001   0.00000E+000
   0.10169E+001  -0.27552E+001   0.00000E+000
   0.10239E+001  -0.27965E+001   0.00000E+000
   0.10307E+001  -0.28373E+001   0.00000E+000
   0.10374E+001  -0.28778E+001   0.00000E+000
   0.10439E+001  -0.29179E+001   0.00000E+000
   0.10503E+001  -0.29577E+001   0.00000E+000
   0.10566E+001  -0.29971E+001   0.00000E+000
   0.10629E+001  -0.30362E+001   0.00000E+000
   0.10691E+001  -0.30751E+001   0.00000E+000
   0.10753E+001  -0.31139E+001   0.00000E+000
   0.10814E+001  -0.31524E+001   0.00000E+000
   0.10876E+001  -0.31909E+001   0.00000E+000
   0.10937E+001  -0.32294E+001   0.00000E+000
   0.10999E+001  -0.32679E+001   0.00000E+000
   0.00000E+000   0.00000E+000   0.00000E+000
   0.25264E-001  -0.57020E-001   0.00000E+000
   0.52791E-001  -0.11945E+000   0.00000E+000
   0.82674E-001  -0.18549E+000   0.00000E+000
   0.11454E+000  -0.25344E+000   0.00000E+000
   0.14775E+000  -0.32197E+000   0.00000E+000
   0.18161E+000  -0.39014E+000   0.00000E+000
   0.21553E+000  -0.45742E+000   0.00000E+000
   0.24907E+000  -0.52355E+000   0.00000E+000
   0.28194E+000  -0.58844E+000   0.00000E+000
   0.31394E+000  -0.65211E+000   0.00000E+000
   0.34498E+000  -0.71463E+000   0.00000E+000
   0.37499E+000  -0.77608E+000   0.00000E+000
   0.40396E+000  -0.83654E+000   0.00000E+000
   0.43189E+000  -0.89612E+000   0.00000E+000
   0.45880E+000  -0.95487E+000   0.00000E+000
   0.48471E+000  -0.10129E+001   0.00000E+000
   0.50966E+000  -0.10702E+001   0.00000E+000
   0.53367E+000  -0.11269E+001   0.00000E+000
   0.55679E+000  -0.11830E+001   0.00000E+000
   0.57904E+000  -0.12385E+001   0.00000E+000
   0.60045E+000  -0.12935E+001   0.00000E+000
   0.62107E+000  -0.13481E+001   0.00000E+000
   0.64091E+000  -0.14021E+001   0.00000E+000
   0.66000E+000  -0.14557E+001   0.00000E+000
   0.67839E+000  -0.15089E+001   0.00000E+000
   0.69608E+000  -0.15616E+001   0.00000E+000
   0.71311E+000  -0.16140E+001   0.00000E+000
   0.72950E+000  -0.16659E+001   0.00000E+000
   0.74528E+000  -0.17173E+001   0.00000E+000
   0.76046E+000  -0.17684E+001   0.00000E+000
   0.77508E+000  -0.18191E+001   0.00000E+000
   0.78915E+000  -0.18693E+001   0.00000E+000
   0.80269E+000  -0.19192E+001   0.00000E+000
   0.81572E+000  -0.19686E+001   0.00000E+000
   0.82826E+000  -0.20176E+001   0.00000E+000
   0.84034E+000  -0.20662E+001   0.00000E+000
   0.85197E+000  -0.21143E+001   0.00000E+000
   0.86317E+000  -0.21620E+001   0.00000E+000
   0.87396E+000  -0.22093E+001   0.00000E+000
   0.88435E+000  -0.22561E+001   0.00000E+000
   0.89437E+000  -0.23025E+001   0.00000E+000
   0.90403E+000  -0.23484E+001   0.00000E+000