# vtk DataFile Version 3.0
Dataset convertido do arquivo t256.out                                                                        
ASCII

DATASET UNSTRUCTURED_GRID
POINTS     16641 float
    0.00000E+00    0.10000E+01    0.00000E+00
    0.78125E-02    0.10000E+01    0.00000E+00
    0.15625E-01    0.10000E+01    0.00000E+00
    0.23438E-01    0.10000E+01    0.00000E+00
    0.31250E-01    0.10000E+01    0.00000E+00
    0.39062E-01    0.10000E+01    0.00000E+00
    0.46875E-01    0.10000E+01    0.00000E+00
    0.54688E-01    0.10000E+01    0.00000E+00
    0.62500E-01    0.10000E+01    0.00000E+00
    0.70312E-01    0.10000E+01    0.00000E+00
    0.78125E-01    0.10000E+01    0.00000E+00
    0.85938E-01    0.10000E+01    0.00000E+00
    0.93750E-01    0.10000E+01    0.00000E+00
    0.10156E+00    0.10000E+01    0.00000E+00
    0.10938E+00    0.10000E+01    0.00000E+00
    0.11719E+00    0.10000E+01    0.00000E+00
    0.12500E+00    0.10000E+01    0.00000E+00
    0.13281E+00    0.10000E+01    0.00000E+00
    0.14062E+00    0.10000E+01    0.00000E+00
    0.14844E+00    0.10000E+01    0.00000E+00
    0.15625E+00    0.10000E+01    0.00000E+00
    0.16406E+00    0.10000E+01    0.00000E+00
    0.17188E+00    0.10000E+01    0.00000E+00
    0.17969E+00    0.10000E+01    0.00000E+00
    0.18750E+00    0.10000E+01    0.00000E+00
    0.19531E+00    0.10000E+01    0.00000E+00
    0.20312E+00    0.10000E+01    0.00000E+00
    0.21094E+00    0.10000E+01    0.00000E+00
    0.21875E+00    0.10000E+01    0.00000E+00
    0.22656E+00    0.10000E+01    0.00000E+00
    0.23438E+00    0.10000E+01    0.00000E+00
    0.24219E+00    0.10000E+01    0.00000E+00
    0.25000E+00    0.10000E+01    0.00000E+00
    0.25781E+00    0.10000E+01    0.00000E+00
    0.26562E+00    0.10000E+01    0.00000E+00
    0.27344E+00    0.10000E+01    0.00000E+00
    0.28125E+00    0.10000E+01    0.00000E+00
    0.28906E+00    0.10000E+01    0.00000E+00
    0.29688E+00    0.10000E+01    0.00000E+00
    0.30469E+00    0.10000E+01    0.00000E+00
    0.31250E+00    0.10000E+01    0.00000E+00
    0.32031E+00    0.10000E+01    0.00000E+00
    0.32812E+00    0.10000E+01    0.00000E+00
    0.33594E+00    0.10000E+01    0.00000E+00
    0.34375E+00    0.10000E+01    0.00000E+00
    0.35156E+00    0.10000E+01    0.00000E+00
    0.35938E+00    0.10000E+01    0.00000E+00
    0.36719E+00    0.10000E+01    0.00000E+00
    0.37500E+00    0.10000E+01    0.00000E+00
    0.38281E+00    0.10000E+01    0.00000E+00
    0.39062E+00    0.10000E+01    0.00000E+00
    0.39844E+00    0.10000E+01    0.00000E+00
    0.40625E+00    0.10000E+01    0.00000E+00
    0.41406E+00    0.10000E+01    0.00000E+00
    0.42188E+00    0.10000E+01    0.00000E+00
    0.42969E+00    0.10000E+01    0.00000E+00
    0.43750E+00    0.10000E+01    0.00000E+00
    0.44531E+00    0.10000E+01    0.00000E+00
    0.45312E+00    0.10000E+01    0.00000E+00
    0.46094E+00    0.10000E+01    0.00000E+00
    0.46875E+00    0.10000E+01    0.00000E+00
    0.47656E+00    0.10000E+01    0.00000E+00
    0.48438E+00    0.10000E+01    0.00000E+00
    0.49219E+00    0.10000E+01    0.00000E+00
    0.50000E+00    0.10000E+01    0.00000E+00
    0.50781E+00    0.10000E+01    0.00000E+00
    0.51562E+00    0.10000E+01    0.00000E+00
    0.52344E+00    0.10000E+01    0.00000E+00
    0.53125E+00    0.10000E+01    0.00000E+00
    0.53906E+00    0.10000E+01    0.00000E+00
    0.54688E+00    0.10000E+01    0.00000E+00
    0.55469E+00    0.10000E+01    0.00000E+00
    0.56250E+00    0.10000E+01    0.00000E+00
    0.57031E+00    0.10000E+01    0.00000E+00
    0.57812E+00    0.10000E+01    0.00000E+00
    0.58594E+00    0.10000E+01    0.00000E+00
    0.59375E+00    0.10000E+01    0.00000E+00
    0.60156E+00    0.10000E+01    0.00000E+00
    0.60938E+00    0.10000E+01    0.00000E+00
    0.61719E+00    0.10000E+01    0.00000E+00
    0.62500E+00    0.10000E+01    0.00000E+00
    0.63281E+00    0.10000E+01    0.00000E+00
    0.64062E+00    0.10000E+01    0.00000E+00
    0.64844E+00    0.10000E+01    0.00000E+00
    0.65625E+00    0.10000E+01    0.00000E+00
    0.66406E+00    0.10000E+01    0.00000E+00
    0.67188E+00    0.10000E+01    0.00000E+00
    0.67969E+00    0.10000E+01    0.00000E+00
    0.68750E+00    0.10000E+01    0.00000E+00
    0.69531E+00    0.10000E+01    0.00000E+00
    0.70312E+00    0.10000E+01    0.00000E+00
    0.71094E+00    0.10000E+01    0.00000E+00
    0.71875E+00    0.10000E+01    0.00000E+00
    0.72656E+00    0.10000E+01    0.00000E+00
    0.73438E+00    0.10000E+01    0.00000E+00
    0.74219E+00    0.10000E+01    0.00000E+00
    0.75000E+00    0.10000E+01    0.00000E+00
    0.75781E+00    0.10000E+01    0.00000E+00
    0.76562E+00    0.10000E+01    0.00000E+00
    0.77344E+00    0.10000E+01    0.00000E+00
    0.78125E+00    0.10000E+01    0.00000E+00
    0.78906E+00    0.10000E+01    0.00000E+00
    0.79688E+00    0.10000E+01    0.00000E+00
    0.80469E+00    0.10000E+01    0.00000E+00
    0.81250E+00    0.10000E+01    0.00000E+00
    0.82031E+00    0.10000E+01    0.00000E+00
    0.82812E+00    0.10000E+01    0.00000E+00
    0.83594E+00    0.10000E+01    0.00000E+00
    0.84375E+00    0.10000E+01    0.00000E+00
    0.85156E+00    0.10000E+01    0.00000E+00
    0.85938E+00    0.10000E+01    0.00000E+00
    0.86719E+00    0.10000E+01    0.00000E+00
    0.87500E+00    0.10000E+01    0.00000E+00
    0.88281E+00    0.10000E+01    0.00000E+00
    0.89062E+00    0.10000E+01    0.00000E+00
    0.89844E+00    0.10000E+01    0.00000E+00
    0.90625E+00    0.10000E+01    0.00000E+00
    0.91406E+00    0.10000E+01    0.00000E+00
    0.92188E+00    0.10000E+01    0.00000E+00
    0.92969E+00    0.10000E+01    0.00000E+00
    0.93750E+00    0.10000E+01    0.00000E+00
    0.94531E+00    0.10000E+01    0.00000E+00
    0.95312E+00    0.10000E+01    0.00000E+00
    0.96094E+00    0.10000E+01    0.00000E+00
    0.96875E+00    0.10000E+01    0.00000E+00
    0.97656E+00    0.10000E+01    0.00000E+00
    0.98438E+00    0.10000E+01    0.00000E+00
    0.99219E+00    0.10000E+01    0.00000E+00
    0.10000E+01    0.10000E+01    0.00000E+00
    0.00000E+00    0.99219E+00    0.00000E+00
    0.78125E-02    0.99219E+00    0.00000E+00
    0.15625E-01    0.99219E+00    0.00000E+00
    0.23438E-01    0.99219E+00    0.00000E+00
    0.31250E-01    0.99219E+00    0.00000E+00
    0.39062E-01    0.99219E+00    0.00000E+00
    0.46875E-01    0.99219E+00    0.00000E+00
    0.54688E-01    0.99219E+00    0.00000E+00
    0.62500E-01    0.99219E+00    0.00000E+00
    0.70312E-01    0.99219E+00    0.00000E+00
    0.78125E-01    0.99219E+00    0.00000E+00
    0.85938E-01    0.99219E+00    0.00000E+00
    0.93750E-01    0.99219E+00    0.00000E+00
    0.10156E+00    0.99219E+00    0.00000E+00
    0.10938E+00    0.99219E+00    0.00000E+00
    0.11719E+00    0.99219E+00    0.00000E+00
    0.12500E+00    0.99219E+00    0.00000E+00
    0.13281E+00    0.99219E+00    0.00000E+00
    0.14062E+00    0.99219E+00    0.00000E+00
    0.14844E+00    0.99219E+00    0.00000E+00
    0.15625E+00    0.99219E+00    0.00000E+00
    0.16406E+00    0.99219E+00    0.00000E+00
    0.17188E+00    0.99219E+00    0.00000E+00
    0.17969E+00    0.99219E+00    0.00000E+00
    0.18750E+00    0.99219E+00    0.00000E+00
    0.19531E+00    0.99219E+00    0.00000E+00
    0.20312E+00    0.99219E+00    0.00000E+00
    0.21094E+00    0.99219E+00    0.00000E+00
    0.21875E+00    0.99219E+00    0.00000E+00
    0.22656E+00    0.99219E+00    0.00000E+00
    0.23438E+00    0.99219E+00    0.00000E+00
    0.24219E+00    0.99219E+00    0.00000E+00
    0.25000E+00    0.99219E+00    0.00000E+00
    0.25781E+00    0.99219E+00    0.00000E+00
    0.26562E+00    0.99219E+00    0.00000E+00
    0.27344E+00    0.99219E+00    0.00000E+00
    0.28125E+00    0.99219E+00    0.00000E+00
    0.28906E+00    0.99219E+00    0.00000E+00
    0.29688E+00    0.99219E+00    0.00000E+00
    0.30469E+00    0.99219E+00    0.00000E+00
    0.31250E+00    0.99219E+00    0.00000E+00
    0.32031E+00    0.99219E+00    0.00000E+00
    0.32812E+00    0.99219E+00    0.00000E+00
    0.33594E+00    0.99219E+00    0.00000E+00
    0.34375E+00    0.99219E+00    0.00000E+00
    0.35156E+00    0.99219E+00    0.00000E+00
    0.35938E+00    0.99219E+00    0.00000E+00
    0.36719E+00    0.99219E+00    0.00000E+00
    0.37500E+00    0.99219E+00    0.00000E+00
    0.38281E+00    0.99219E+00    0.00000E+00
    0.39062E+00    0.99219E+00    0.00000E+00
    0.39844E+00    0.99219E+00    0.00000E+00
    0.40625E+00    0.99219E+00    0.00000E+00
    0.41406E+00    0.99219E+00    0.00000E+00
    0.42188E+00    0.99219E+00    0.00000E+00
    0.42969E+00    0.99219E+00    0.00000E+00
    0.43750E+00    0.99219E+00    0.00000E+00
    0.44531E+00    0.99219E+00    0.00000E+00
    0.45312E+00    0.99219E+00    0.00000E+00
    0.46094E+00    0.99219E+00    0.00000E+00
    0.46875E+00    0.99219E+00    0.00000E+00
    0.47656E+00    0.99219E+00    0.00000E+00
    0.48438E+00    0.99219E+00    0.00000E+00
    0.49219E+00    0.99219E+00    0.00000E+00
    0.50000E+00    0.99219E+00    0.00000E+00
    0.50781E+00    0.99219E+00    0.00000E+00
    0.51562E+00    0.99219E+00    0.00000E+00
    0.52344E+00    0.99219E+00    0.00000E+00
    0.53125E+00    0.99219E+00    0.00000E+00
    0.53906E+00    0.99219E+00    0.00000E+00
    0.54688E+00    0.99219E+00    0.00000E+00
    0.55469E+00    0.99219E+00    0.00000E+00
    0.56250E+00    0.99219E+00    0.00000E+00
    0.57031E+00    0.99219E+00    0.00000E+00
    0.57812E+00    0.99219E+00    0.00000E+00
    0.58594E+00    0.99219E+00    0.00000E+00
    0.59375E+00    0.99219E+00    0.00000E+00
    0.60156E+00    0.99219E+00    0.00000E+00
    0.60938E+00    0.99219E+00    0.00000E+00
    0.61719E+00    0.99219E+00    0.00000E+00
    0.62500E+00    0.99219E+00    0.00000E+00
    0.63281E+00    0.99219E+00    0.00000E+00
    0.64062E+00    0.99219E+00    0.00000E+00
    0.64844E+00    0.99219E+00    0.00000E+00
[...]
POINT_DATA      16641
VECTORS deslocamento double
   0.00000E+000   0.00000E+000   0.00000E+000
   0.79015E-001  -0.90111E-001   0.00000E+000
   0.13355E+000  -0.15013E+000   0.00000E+000
   0.17764E+000  -0.20175E+000   0.00000E+000
   0.21572E+000  -0.24871E+000   0.00000E+000
   0.24984E+000  -0.29245E+000   0.00000E+000
   0.28110E+000  -0.33380E+000   0.00000E+000
   0.31018E+000  -0.37329E+000   0.00000E+000
   0.33749E+000  -0.41128E+000   0.00000E+000
   0.36333E+000  -0.44803E+000   0.00000E+000
   0.38792E+000  -0.48374E+000   0.00000E+000
   0.41140E+000  -0.51855E+000   0.00000E+000
   0.43392E+000  -0.55258E+000   0.00000E+000
   0.45557E+000  -0.58594E+000   0.00000E+000
   0.47643E+000  -0.61869E+000   0.00000E+000
   0.49658E+000  -0.65090E+000   0.00000E+000
   0.51606E+000  -0.68264E+000   0.00000E+000
   0.53494E+000  -0.71393E+000   0.00000E+000
   0.55324E+000  -0.74483E+000   0.00000E+000
   0.57102E+000  -0.77537E+000   0.00000E+000
   0.58830E+000  -0.80557E+000   0.00000E+000
   0.60510E+000  -0.83547E+000   0.00000E+000
   0.62147E+000  -0.86508E+000   0.00000E+000
   0.63741E+000  -0.89443E+000   0.00000E+000
   0.65294E+000  -0.92354E+000   0.00000E+000
   0.66810E+000  -0.95242E+000   0.00000E+000
   0.68289E+000  -0.98108E+000   0.00000E+000
   0.69732E+000  -0.10095E+001   0.00000E+000
   0.71142E+000  -0.10378E+001   0.00000E+000
   0.72520E+000  -0.10659E+001   0.00000E+000
   0.73866E+000  -0.10939E+001   0.00000E+000
   0.75181E+000  -0.11216E+001   0.00000E+000
   0.76468E+000  -0.11492E+001   0.00000E+000
   0.77725E+000  -0.11767E+001   0.00000E+000
   0.78956E+000  -0.12041E+001   0.00000E+000
   0.80159E+000  -0.12313E+001   0.00000E+000
   0.81337E+000  -0.12583E+001   0.00000E+000
   0.82489E+000  -0.12853E+001   0.00000E+000
   0.83617E+000  -0.13121E+001   0.00000E+000
   0.84720E+000  -0.13389E+001   0.00000E+000
   0.85800E+000  -0.13655E+001   0.00000E+000
   0.86857E+000  -0.13920E+001   0.00000E+000
   0.87891E+000  -0.14184E+001   0.00000E+000
   0.88904E+000  -0.14447E+001   0.00000E+000
   0.89895E+000  -0.14709E+001   0.00000E+000
   0.90866E+000  -0.14970E+001   0.00000E+000
   0.91815E+000  -0.15230E+001   0.00000E+000
   0.92745E+000  -0.15489E+001   0.00000E+000
   0.93655E+000  -0.15747E+001   0.00000E+000
   0.94545E+000  -0.16004E+001   0.00000E+000
   0.95416E+000  -0.16260E+001   0.00000E+000
   0.96269E+000  -0.16516E+001   0.00000E+000
   0.97104E+000  -0.16770E+001   0.00000E+000
   0.97920E+000  -0.17024E+001   0.00000E+000
   0.98719E+000  -0.17277E+001   0.00000E+000
   0.99501E+000  -0.17529E+001   0.00000E+000
   0.10027E+001  -0.17780E+001   0.00000E+000
   0.10101E+001  -0.18030E+001   0.00000E+000
   0.10174E+001  -0.18279E+001   0.00000E+000
   0.10246E+001  -0.18527E+001   0.00000E+000
   0.10316E+001  -0.18775E+001   0.00000E+000
   0.10384E+001  -0.19021E+001   0.00000E+000
   0.10451E+001  -0.19267E+001   0.00000E+000
   0.10517E+001  -0.19512E+001   0.00000E+000
   0.10581E+001  -0.19756E+001   0.00000E+000
   0.10643E+001  -0.19999E+001   0.00000E+000
   0.10704E+001  -0.20241E+001   0.00000E+000
   0.10764E+001  -0.20482E+001   0.00000E+000
   0.10822E+001  -0.20722E+001   0.00000E+000
   0.10879E+001  -0.20962E+001   0.00000E+000
   0.10935E+001  -0.21200E+001   0.00000E+000
   0.10990E+001  -0.21438E+001   0.00000E+000
   0.11043E+001  -0.21674E+001   0.00000E+000
   0.11095E+001  -0.21910E+001   0.00000E+000
   0.11146E+001  -0.22144E+001   0.00000E+000
   0.11196E+001  -0.22378E+001   0.00000E+000
   0.11244E+001  -0.22611E+001   0.00000E+000
   0.11291E+001  -0.22843E+001   0.00000E+000
   0.11338E+001  -0.23073E+001   0.00000E+000
   0.11383E+001  -0.23303E+001   0.00000E+000
   0.11427E+001  -0.23532E+001   0.00000E+000
   0.11471E+001  -0.23760E+001   0.00000E+000
   0.11513E+001  -0.23987E+001   0.00000E+000
   0.11554E+001  -0.24212E+001   0.00000E+000
   0.11595E+001  -0.24437E+001   0.00000E+000
   0.11635E+001  -0.24661E+001   0.00000E+000
   0.11673E+001  -0.24884E+001   0.00000E+000
   0.11711E+001  -0.25105E+001   0.00000E+000
   0.11748E+001  -0.25326E+001   0.00000E+000
   0.11785E+001  -0.25546E+001   0.00000E+000
   0.11821E+001  -0.25764E+001   0.00000E+000
   0.11856E+001  -0.25982E+001   0.00000E+000
   0.11890E+001  -0.26198E+001   0.00000E+000
   0.11924E+001  -0.26414E+001   0.00000E+000
   0.11957E+001  -0.26629E+001   0.00000E+000
   0.11989E+001  -0.26842E+001   0.00000E+000
   0.12021E+001  -0.27055E+001   0.00000E+000
   0.12053E+001  -0.27266E+001   0.00000E+000
   0.12084E+001  -0.27477E+001   0.00000E+000
   0.12114E+001  -0.27686E+001   0.00000E+000
   0.12144E+001  -0.27895E+001   0.00000E+000
   0.12174E+001  -0.28102E+001   0.00000E+000
   0.12204E+001  -0.28309E+001   0.00000E+000
   0.12233E+001  -0.28514E+001   0.00000E+000
   0.12262E+001  -0.28719E+001   0.00000E+000
   0.12291E+001  -0.28923E+001   0.00000E+000
   0.12319E+001  -0.29126E+001   0.00000E+000
   0.12348E+001  -0.29328E+001   0.00000E+000
   0.12376E+001  -0.29529E+001   0.00000E+000
   0.12404E+001  -0.29730E+001   0.00000E+000
   0.12432E+001  -0.29929E+001   0.00000E+000
   0.12460E+001  -0.30128E+001   0.00000E+000
   0.12488E+001  -0.30326E+001   0.00000E+000
   0.12516E+001  -0.30524E+001   0.00000E+000
   0.12545E+001  -0.30721E+001   0.00000E+000
   0.12573E+001  -0.30917E+001   0.00000E+000
   0.12601E+001  -0.31113E+001   0.00000E+000
   0.12630E+001  -0.31309E+001   0.00000E+000
   0.12659E+001  -0.31503E+001   0.00000E+000
   0.12688E+001  -0.31698E+001   0.00000E+000
   0.12717E+001  -0.31892E+001   0.00000E+000
   0.12747E+001  -0.32087E+001   0.00000E+000
   0.12776E+001  -0.32280E+001   0.00000E+000
   0.12806E+001  -0.32474E+001   0.00000E+000
   0.12836E+001  -0.32668E+001   0.00000E+000
   0.12866E+001  -0.32862E+001   0.00000E+000
   0.12897E+001  -0.33056E+001   0.00000E+000
   0.12927E+001  -0.33250E+001   0.00000E+000
   0.12958E+001  -0.33444E+001   0.00000E+000
   0.00000E+000   0.00000E+000   0.00000E+000
   0.43466E-001  -0.61832E-001   0.00000E+000
   0.92841E-001  -0.12451E+000   0.00000E+000
   0.13659E+000  -0.17867E+000   0.00000E+000
   0.17561E+000  -0.22745E+000   0.00000E+000
   0.21097E+000  -0.27254E+000   0.00000E+000
   0.24347E+000  -0.31494E+000   0.00000E+000
   0.27366E+000  -0.35527E+000   0.00000E+000
   0.30195E+000  -0.39396E+000   0.00000E+000
   0.32866E+000  -0.43130E+000   0.00000E+000
   0.35401E+000  -0.46752E+000   0.00000E+000
   0.37817E+000  -0.50278E+000   0.00000E+000
   0.40129E+000  -0.53722E+000   0.00000E+000
   0.42348E+000  -0.57094E+000   0.00000E+000
   0.44483E+000  -0.60402E+000   0.00000E+000
   0.46541E+000  -0.63653E+000   0.00000E+000
   0.48529E+000  -0.66854E+000   0.00000E+000
   0.50453E+000  -0.70010E+000   0.00000E+000
   0.52317E+000  -0.73124E+000   0.00000E+000
   0.54126E+000  -0.76200E+000   0.00000E+000
   0.55882E+000  -0.79241E+000   0.00000E+000
   0.57589E+000  -0.82251E+000   0.00000E+000
   0.59250E+000  -0.85231E+000   0.00000E+000
   0.60867E+000  -0.88184E+000   0.00000E+000
   0.62442E+000  -0.91112E+000   0.00000E+000
   0.63977E+000  -0.94016E+000   0.00000E+000
   0.65475E+000  -0.96898E+000   0.00000E+000
   0.66936E+000  -0.99760E+000   0.00000E+000
   0.68363E+000  -0.10260E+001   0.00000E+000
   0.69756E+000  -0.10543E+001   0.00000E+000
   0.71117E+000  -0.10823E+001   0.00000E+000
   0.72447E+000  -0.11102E+001   0.00000E+000
   0.73747E+000  -0.11380E+001   0.00000E+000
   0.75018E+000  -0.11656E+001   0.00000E+000
   0.76261E+000  -0.11930E+001   0.00000E+000
   0.77477E+000  -0.12203E+001   0.00000E+000
   0.78666E+000  -0.12475E+001   0.00000E+000
   0.79830E+000  -0.12746E+001   0.00000E+000
   0.80968E+000  -0.13015E+001   0.00000E+000
   0.82082E+000  -0.13283E+001   0.00000E+000
   0.83172E+000  -0.13551E+001   0.00000E+000
   0.84239E+000  -0.13817E+001   0.00000E+000
   0.85283E+000  -0.14082E+001   0.00000E+000
   0.86306E+000  -0.14345E+001   0.00000E+000
   0.87306E+000  -0.14608E+001   0.00000E+000
   0.88286E+000  -0.14870E+001   0.00000E+000
   0.89244E+000  -0.15131E+001   0.00000E+000
   0.90183E+000  -0.15391E+001   0.00000E+000
   0.91101E+000  -0.15650E+001   0.00000E+000
   0.92000E+000  -0.15908E+001   0.00000E+000
   0.92880E+000  -0.16165E+001   0.00000E+000
   0.93742E+000  -0.16422E+001   0.00000E+000
   0.94585E+000  -0.16677E+001   0.00000E+000
   0.95410E+000  -0.16931E+001   0.00000E+000
   0.96217E+000  -0.17185E+001   0.00000E+000
   0.97007E+000  -0.17437E+001   0.00000E+000
   0.97780E+000  -0.17689E+001   0.00000E+000
   0.98536E+000  -0.17940E+001   0.00000E+000
   0.99276E+000  -0.18190E+001   0.00000E+000
   0.10000E+001  -0.18439E+001   0.00000E+000
   0.10071E+001  -0.18687E+001   0.00000E+000
   0.10140E+001  -0.18934E+001   0.00000E+000
   0.10208E+001  -0.19181E+001   0.00000E+000
   0.10274E+001  -0.19426E+001   0.00000E+000
   0.10339E+001  -0.19670E+001   0.00000E+000
   0.10402E+001  -0.19914E+001   0.00000E+000
   0.10464E+001  -0.20157E+001   0.00000E+000
   0.10525E+001  -0.20399E+001   0.00000E+000
   0.10584E+001  -0.20639E+001   0.00000E+000
   0.10642E+001  -0.20879E+001   0.00000E+000
   0.10699E+001  -0.21118E+001   0.00000E+000
   0.10754E+001  -0.21356E+001   0.00000E+000
   0.10808E+001  -0.21593E+001   0.00000E+000
   0.10861E+001  -0.21830E+001   0.00000E+000
   0.10913E+001  -0.22065E+001   0.00000E+000
   0.10964E+001  -0.22299E+001   0.00000E+000
   0.11013E+001  -0.22532E+001   0.00000E+000
   0.11062E+001  -0.22764E+001   0.00000E+000
   0.11109E+001  -0.22996E+001   0.00000E+000
   0.11155E+001  -0.23226E+001   0.00000E+000
   0.11200E+001  -0.23455E+001   0.00000E+000
   0.11245E+001  -0.23683E+001   0.00000E+000
   0.11288E+001  -0.23910E+001   0.00000E+000
   0.11330E+001  -0.24137E+001   0.00000E+000
   0.11372E+001  -0.24362E+001   0.00000E+000
   0.11412E+001  -0.24586E+001   0.00000E+000
   0.11452E+001  -0.24809E+001   0.00000E+000
   0.11491E+001  -0.25031E+001   0.00000E+000
   0.11529E+001  -0.25252E+001   0.00000E+000
   0.11567E+001  -0.25472E+001   0.00000E+000
   0.11603E+001  -0.25691E+001   0.00000E+000
   0.11639E+001  -0.25909E+001   0.00000E+000
   0.11675E+001  -0.26126E+001   0.00000E+000
   0.11709E+001  -0.26341E+001   0.00000E+000
   0.11743E+001  -0.26556E+001   0.00000E+000
   0.11777E+001  -0.26770E+001   0.00000E+000
   0.11810E+001  -0.26983E+001   0.00000E+000
   0.11842E+001  -0.27194E+001   0.00000E+000
   0.11874E+001  -0.27405E+001   0.00000E+000
   0.11906E+001  -0.27615E+001   0.00000E+000
   0.11937E+001  -0.27823E+001   0.00000E+000
   0.11968E+001  -0.28031E+001   0.00000E+000
   0.11998E+001  -0.28238E+001   0.00000E+000
   0.12028E+001  -0.28444E+001   0.00000E+000
   0.12058E+001  -0.28649E+001   0.00000E+000
   0.12088E+001  -0.28852E+001   0.00000E+000
   0.12117E+001  -0.29055E+001   0.00000E+000
   0.12146E+001  -0.29258E+001   0.00000E+000
   0.12175E+001  -0.29459E+001   0.00000E+000
   0.12204E+001  -0.29659E+001   0.00000E+000
   0.12233E+001  -0.29859E+001   0.00000E+000
   0.12262E+001  -0.30058E+001   0.00000E+000
   0.12290E+001  -0.30256E+001   0.00000E+000
   0.12319E+001  -0.30454E+001   0.00000E+000
   0.12348E+001  -0.30651E+001   0.00000E+000
   0.12377E+001  -0.30847E+001   0.00000E+000
   0.12406E+001  -0.31043E+001   0.00000E+000
   0.12435E+001  -0.31238E+001   0.00000E+000
   0.12464E+001  -0.31433E+001   0.00000E+000
   0.12493E+001  -0.31628E+001   0.00000E+000
   0.12523E+001  -0.31822E+001   0.00000E+000
   0.12552E+001  -0.32016E+001   0.00000E+000
   0.12582E+001  -0.32210E+001   0.00000E+000
   0.12612E+001  -0.32403E+001   0.00000E+000
   0.12642E+001  -0.32597E+001   0.00000E+000
   0.12672E+001  -0.32791E+001   0.00000E+000
   0.12703E+001  -0.32985E+001   0.00000E+000
   0.12733E+001  -0.33179E+001   0.00000E+000
   0.12764E+001  -0.33373E+001   0.00000E+000
   0.00000E+000   0.00000E+000   0.00000E+000
   0.32540E-001  -0.50308E-001   0.00000E+000
   0.69875E-001  -0.10502E+000   0.00000E+000
   0.10842E+000  -0.15808E+000   0.00000E+000
   0.14513E+000  -0.20725E+000   0.00000E+000
   0.17952E+000  -0.25306E+000   0.00000E+000
   0.21170E+000  -0.29621E+000   0.00000E+000
   0.24192E+000  -0.33725E+000   0.00000E+000
   0.27041E+000  -0.37656E+000   0.00000E+000
   0.29739E+000  -0.41447E+000   0.00000E+000
   0.32305E+000  -0.45119E+000   0.00000E+000
   0.34753E+000  -0.48690E+000   0.00000E+000
   0.37097E+000  -0.52174E+000   0.00000E+000
   0.39346E+000  -0.55582E+000   0.00000E+000
   0.41510E+000  -0.58924E+000   0.00000E+000
   0.43596E+000  -0.62206E+000   0.00000E+000
   0.45611E+000  -0.65435E+000   0.00000E+000
   0.47560E+000  -0.68617E+000   0.00000E+000
   0.49447E+000  -0.71755E+000   0.00000E+000
   0.51277E+000  -0.74854E+000   0.00000E+000
   0.53054E+000  -0.77917E+000   0.00000E+000
   0.54781E+000  -0.80947E+000   0.00000E+000
   0.56460E+000  -0.83947E+000   0.00000E+000
   0.58094E+000  -0.86918E+000   0.00000E+000
   0.59686E+000  -0.89863E+000   0.00000E+000
   0.61237E+000  -0.92784E+000   0.00000E+000
   0.62750E+000  -0.95682E+000   0.00000E+000
   0.64225E+000  -0.98559E+000   0.00000E+000
   0.65665E+000  -0.10142E+001   0.00000E+000
   0.67071E+000  -0.10425E+001   0.00000E+000
   0.68445E+000  -0.10707E+001   0.00000E+000
   0.69787E+000  -0.10988E+001   0.00000E+000
   0.71098E+000  -0.11266E+001   0.00000E+000
   0.72380E+000  -0.11544E+001   0.00000E+000
   0.73633E+000  -0.11819E+001   0.00000E+000
   0.74859E+000  -0.12094E+001   0.00000E+000
   0.76058E+000  -0.12367E+001   0.00000E+000
   0.77231E+000  -0.12638E+001   0.00000E+000
   0.78379E+000  -0.12909E+001   0.00000E+000
   0.79502E+000  -0.13178E+001   0.00000E+000
   0.80601E+000  -0.13446E+001   0.00000E+000
   0.81676E+000  -0.13713E+001   0.00000E+000
   0.82729E+000  -0.13979E+001   0.00000E+000
   0.83760E+000  -0.14244E+001   0.00000E+000
   0.84768E+000  -0.14508E+001   0.00000E+000
   0.85756E+000  -0.14771E+001   0.00000E+000
   0.86722E+000  -0.15032E+001   0.00000E+000
   0.87669E+000  -0.15293E+001   0.00000E+000
   0.88595E+000  -0.15553E+001   0.00000E+000
   0.89502E+000  -0.15812E+001   0.00000E+000
   0.90390E+000  -0.16070E+001   0.00000E+000
   0.91259E+000  -0.16327E+001   0.00000E+000
   0.92109E+000  -0.16583E+001   0.00000E+000
   0.92942E+000  -0.16838E+001   0.00000E+000
   0.93757E+000  -0.17092E+001   0.00000E+000
   0.94555E+000  -0.17346E+001   0.00000E+000
   0.95335E+000  -0.17598E+001   0.00000E+000
   0.96099E+000  -0.17850E+001   0.00000E+000
   0.96847E+000  -0.18100E+001   0.00000E+000
   0.97579E+000  -0.18350E+001   0.00000E+000
   0.98295E+000  -0.18599E+001   0.00000E+000
   0.98995E+000  -0.18847E+001   0.00000E+000
   0.99681E+000  -0.19094E+001   0.00000E+000
   0.10035E+001  -0.19340E+001   0.00000E+000
   0.10101E+001  -0.19585E+001   0.00000E+000
   0.10165E+001  -0.19829E+001   0.00000E+000
   0.10228E+001  -0.20072E+001   0.00000E+000
   0.10289E+001  -0.20315E+001   0.00000E+000
   0.10349E+001  -0.20556E+001   0.00000E+000
   0.10408E+001  -0.20797E+001   0.00000E+000
   0.10466E+001  -0.21036E+001   0.00000E+000
   0.10522E+001  -0.21275E+001   0.00000E+000
   0.10577E+001  -0.21512E+001   0.00000E+000
   0.10631E+001  -0.21749E+001   0.00000E+000
   0.10683E+001  -0.21985E+001   0.00000E+000
   0.10735E+001  -0.22219E+001   0.00000E+000
   0.10785E+001  -0.22453E+001   0.00000E+000
   0.10834E+001  -0.22686E+001   0.00000E+000
   0.10882E+001  -0.22917E+001   0.00000E+000
   0.10930E+001  -0.23148E+001   0.00000E+000
   0.10976E+001  -0.23378E+001   0.00000E+000
   0.11021E+001  -0.23606E+001   0.00000E+000
   0.11065E+001  -0.23834E+001   0.00000E+000
   0.11108E+001  -0.24060E+001   0.00000E+000
   0.11151E+001  -0.24286E+001   0.00000E+000
   0.11192E+001  -0.24510E+001   0.00000E+000
   0.11233E+001  -0.24734E+001   0.00000E+000
   0.11273E+001  -0.24956E+001   0.00000E+000
   0.11312E+001  -0.25178E+001   0.00000E+000
   0.11350E+001  -0.25398E+001   0.00000E+000
   0.11388E+001  -0.25617E+001   0.00000E+000
   0.11425E+001  -0.25835E+001   0.00000E+000
   0.11461E+001  -0.26052E+001   0.00000E+000
   0.11496E+001  -0.26269E+001   0.00000E+000
   0.11531E+001  -0.26484E+001   0.00000E+000
   0.11566E+001  -0.26698E+001   0.00000E+000
   0.11600E+001  -0.26911E+001   0.00000E+000
   0.11633E+001  -0.27122E+001   0.00000E+000
   0.11666E+001  -0.27333E+001   0.00000E+000
   0.11698E+001  -0.27543E+001   0.00000E+000
   0.11730E+001  -0.27752E+001   0.00000E+000
   0.11762E+001  -0.27960E+001   0.00000E+000
   0.11793E+001  -0.28167E+001   0.00000E+000
   0.11824E+001  -0.28373E+001   0.00000E+000
   0.11855E+001  -0.28578E+001   0.00000E+000
   0.11885E+001  -0.28782E+001   0.00000E+000
   0.11915E+001  -0.28985E+001   0.00000E+000
   0.11945E+001  -0.29187E+001   0.00000E+000
   0.11975E+001  -0.29388E+001   0.00000E+000
   0.12004E+001  -0.29589E+001   0.00000E+000
   0.12034E+001  -0.29789E+001   0.00000E+000
   0.12063E+001  -0.29988E+001   0.00000E+000
   0.12092E+001  -0.30186E+001   0.00000E+000
   0.12122E+001  -0.30383E+001   0.00000E+000
   0.12151E+001  -0.30580E+001   0.00000E+000
   0.12180E+001  -0.30777E+001   0.00000E+000
   0.12210E+001  -0.30972E+001   0.00000E+000
   0.12239E+001  -0.31168E+001   0.00000E+000
   0.12268E+001  -0.31362E+001   0.00000E+000
   0.12298E+001  -0.31557E+001   0.00000E+000
   0.12328E+001  -0.31751E+001   0.00000E+000
   0.12358E+001  -0.31945E+001   0.00000E+000
   0.12387E+001  -0.32139E+001   0.00000E+000
   0.12418E+001  -0.32332E+001   0.00000E+000
   0.12448E+001  -0.32526E+001   0.00000E+000
   0.12478E+001  -0.32720E+001   0.00000E+000
   0.12508E+001  -0.32914E+001   0.00000E+000
   0.12539E+001  -0.33108E+001   0.00000E+000
   0.12569E+001  -0.33302E+001   0.00000E+000
   0.00000E+000   0.00000E+000   0.00000E+000
   0.26968E-001  -0.43946E-001   0.00000E+000
   0.57251E-001  -0.92470E-001   0.00000E+000
   0.89737E-001  -0.14182E+000   0.00000E+000
   0.12263E+000  -0.18967E+000   0.00000E+000
   0.15469E+000  -0.23520E+000   0.00000E+000
   0.18546E+000  -0.27851E+000   0.00000E+000
   0.21483E+000  -0.31988E+000   0.00000E+000
   0.24283E+000  -0.35960E+000   0.00000E+000
   0.26955E+000  -0.39792E+000   0.00000E+000
   0.29509E+000  -0.43504E+000   0.00000E+000
   0.31954E+000  -0.47113E+000   0.00000E+000
   0.34301E+000  -0.50633E+000   0.00000E+000
   0.36558E+000  -0.54075E+000   0.00000E+000
   0.38732E+000  -0.57448E+000   0.00000E+000
   0.40829E+000  -0.60759E+000   0.00000E+000
   0.42856E+000  -0.64016E+000   0.00000E+000
   0.44817E+000  -0.67223E+000   0.00000E+000
   0.46718E+000  -0.70385E+000   0.00000E+000
   0.48561E+000  -0.73507E+000   0.00000E+000
   0.50350E+000  -0.76591E+000   0.00000E+000
   0.52089E+000  -0.79641E+000   0.00000E+000
   0.53780E+000  -0.82660E+000   0.00000E+000
   0.55426E+000  -0.85650E+000   0.00000E+000
   0.57029E+000  -0.88612E+000   0.00000E+000
   0.58592E+000  -0.91550E+000   0.00000E+000
   0.60115E+000  -0.94463E+000   0.00000E+000
   0.61601E+000  -0.97355E+000   0.00000E+000
   0.63051E+000  -0.10023E+001   0.00000E+000
   0.64467E+000  -0.10308E+001   0.00000E+000
   0.65849E+000  -0.10591E+001   0.00000E+000
   0.67200E+000  -0.10873E+001   0.00000E+000
   0.68520E+000  -0.11153E+001   0.00000E+000
   0.69811E+000  -0.11431E+001   0.00000E+000
   0.71072E+000  -0.11708E+001   0.00000E+000
   0.72306E+000  -0.11984E+001   0.00000E+000
   0.73513E+000  -0.12258E+001   0.00000E+000
   0.74694E+000  -0.12531E+001   0.00000E+000
   0.75849E+000  -0.12802E+001   0.00000E+000
   0.76980E+000  -0.13072E+001   0.00000E+000
   0.78086E+000  -0.13342E+001   0.00000E+000
   0.79169E+000  -0.13610E+001   0.00000E+000
   0.80229E+000  -0.13876E+001   0.00000E+000
   0.81267E+000  -0.14142E+001   0.00000E+000
   0.82282E+000  -0.14407E+001   0.00000E+000
   0.83277E+000  -0.14671E+001   0.00000E+000