# vtk DataFile Version 3.0
Dataset convertido do arquivo t32.out                                                                         
ASCII

DATASET UNSTRUCTURED_GRID
POINTS       289 float
    0.00000E+00    0.10000E+01    0.00000E+00
    0.62500E-01    0.10000E+01    0.00000E+00
    0.12500E+00    0.10000E+01    0.00000E+00
    0.18750E+00    0.10000E+01    0.00000E+00
    0.25000E+00    0.10000E+01    0.00000E+00
    0.31250E+00    0.10000E+01    0.00000E+00
    0.37500E+00    0.10000E+01    0.00000E+00
    0.43750E+00    0.10000E+01    0.00000E+00
    0.50000E+00    0.10000E+01    0.00000E+00
    0.56250E+00    0.10000E+01    0.00000E+00
    0.62500E+00    0.10000E+01    0.00000E+00
    0.68750E+00    0.10000E+01    0.00000E+00
    0.75000E+00    0.10000E+01    0.00000E+00
    0.81250E+00    0.10000E+01    0.00000E+00
    0.87500E+00    0.10000E+01    0.00000E+00
    0.93750E+00    0.10000E+01    0.00000E+00
    0.10000E+01    0.10000E+01    0.00000E+00
    0.00000E+00    0.93750E+00    0.00000E+00
    0.62500E-01    0.93750E+00    0.00000E+00
    0.12500E+00    0.93750E+00    0.00000E+00
    0.18750E+00    0.93750E+00    0.00000E+00
    0.25000E+00    0.93750E+00    0.00000E+00
    0.31250E+00    0.93750E+00    0.00000E+00
    0.37500E+00    0.93750E+00    0.00000E+00
    0.43750E+00    0.93750E+00    0.00000E+00
    0.50000E+00    0.93750E+00    0.00000E+00
    0.56250E+00    0.93750E+00    0.00000E+00
    0.62500E+00    0.93750E+00    0.00000E+00
    0.68750E+00    0.93750E+00    0.00000E+00
    0.75000E+00    0.93750E+00    0.00000E+00
    0.81250E+00    0.93750E+00    0.00000E+00
    0.87500E+00    0.93750E+00    0.00000E+00
    0.93750E+00    0.93750E+00    0.00000E+00
    0.10000E+01    0.93750E+00    0.00000E+00
    0.00000E+00    0.87500E+00    0.00000E+00
    0.62500E-01    0.87500E+00    0.00000E+00
    0.12500E+00    0.87500E+00    0.00000E+00
    0.18750E+00    0.87500E+00    0.00000E+00
    0.25000E+00    0.87500E+00    0.00000E+00
    0.31250E+00    0.87500E+00    0.00000E+00
    0.37500E+00    0.87500E+00    0.00000E+00
    0.43750E+00    0.87500E+00    0.00000E+00
    0.50000E+00    0.87500E+00    0.00000E+00
    0.56250E+00    0.87500E+00    0.00000E+00
    0.62500E+00    0.87500E+00    0.00000E+00
    0.68750E+00    0.87500E+00    0.00000E+00
    0.75000E+00    0.87500E+00    0.00000E+00
    0.81250E+00    0.87500E+00    0.00000E+00
    0.87500E+00    0.87500E+00    0.00000E+00
    0.93750E+00    0.87500E+00    0.00000E+00
    0.10000E+01    0.87500E+00    0.00000E+00
    0.00000E+00    0.81250E+00    0.00000E+00
    0.62500E-01    0.81250E+00    0.00000E+00
    0.12500E+00    0.81250E+00    0.00000E+00
    0.18750E+00    0.81250E+00    0.00000E+00
    0.25000E+00    0.81250E+00    0.00000E+00
    0.31250E+00    0.81250E+00    0.00000E+00
    0.37500E+00    0.81250E+00    0.00000E+00
    0.43750E+00    0.81250E+00    0.00000E+00
    0.50000E+00    0.81250E+00    0.00000E+00
    0.56250E+00    0.81250E+00    0.00000E+00
    0.62500E+00    0.81250E+00    0.00000E+00
    0.68750E+00    0.81250E+00    0.00000E+00
    0.75000E+00    0.81250E+00    0.00000E+00
    0.81250E+00    0.81250E+00    0.00000E+00
    0.87500E+00    0.81250E+00    0.00000E+00
    0.93750E+00    0.81250E+00    0.00000E+00
    0.10000E+01    0.81250E+00    0.00000E+00
    0.00000E+00    0.75000E+00    0.00000E+00
    0.62500E-01    0.75000E+00    0.00000E+00
    0.12500E+00    0.75000E+00    0.00000E+00
    0.18750E+00    0.75000E+00    0.00000E+00
    0.25000E+00    0.75000E+00    0.00000E+00
    0.31250E+00    0.75000E+00    0.00000E+00
    0.37500E+00    0.75000E+00    0.00000E+00
    0.43750E+00    0.75000E+00    0.00000E+00
    0.50000E+00    0.75000E+00    0.00000E+00
    0.56250E+00    0.75000E+00    0.00000E+00
    0.62500E+00    0.75000E+00    0.00000E+00
    0.68750E+00    0.75000E+00    0.00000E+00
    0.75000E+00    0.75000E+00    0.00000E+00
    0.81250E+00    0.75000E+00    0.00000E+00
    0.87500E+00    0.75000E+00    0.00000E+00
    0.93750E+00    0.75000E+00    0.00000E+00
    0.10000E+01    0.75000E+00    0.00000E+00
    0.00000E+00    0.68750E+00    0.00000E+00
    0.62500E-01    0.68750E+00    0.00000E+00
    0.12500E+00    0.68750E+00    0.00000E+00
    0.18750E+00    0.68750E+00    0.00000E+00
    0.25000E+00    0.68750E+00    0.00000E+00
    0.31250E+00    0.68750E+00    0.00000E+00
    0.37500E+00    0.68750E+00    0.00000E+00
    0.43750E+00    0.68750E+00    0.00000E+00
    0.50000E+00    0.68750E+00    0.00000E+00
    0.56250E+00    0.68750E+00    0.00000E+00
    0.62500E+00    0.68750E+00    0.00000E+00
    0.68750E+00    0.68750E+00    0.00000E+00
    0.75000E+00    0.68750E+00    0.00000E+00
    0.81250E+00    0.68750E+00    0.00000E+00
    0.87500E+00    0.68750E+00    0.00000E+00
    0.93750E+00    0.68750E+00    0.00000E+00
    0.10000E+01    0.68750E+00    0.00000E+00
    0.00000E+00    0.62500E+00    0.00000E+00
    0.62500E-01    0.62500E+00    0.00000E+00
    0.12500E+00    0.62500E+00    0.00000E+00
    0.18750E+00    0.62500E+00    0.00000E+00
    0.25000E+00    0.62500E+00    0.00000E+00
    0.31250E+00    0.62500E+00    0.00000E+00
    0.37500E+00    0.62500E+00    0.00000E+00
    0.43750E+00    0.62500E+00    0.00000E+00
    0.50000E+00    0.62500E+00    0.00000E+00
    0.56250E+00    0.62500E+00    0.00000E+00
    0.62500E+00    0.62500E+00    0.00000E+00
    0.68750E+00    0.62500E+00    0.00000E+00
    0.75000E+00    0.62500E+00    0.00000E+00
    0.81250E+00    0.62500E+00    0.00000E+00
    0.87500E+00    0.62500E+00    0.00000E+00
    0.93750E+00    0.62500E+00    0.00000E+00
    0.10000E+01    0.62500E+00    0.00000E+00
    0.00000E+00    0.56250E+00    0.00000E+00
    0.62500E-01    0.56250E+00    0.00000E+00
    0.12500E+00    0.56250E+00    0.00000E+00
    0.18750E+00    0.56250E+00    0.00000E+00
    0.25000E+00    0.56250E+00    0.00000E+00
    0.31250E+00    0.56250E+00    0.00000E+00
    0.37500E+00    0.56250E+00    0.00000E+00
    0.43750E+00    0.56250E+00    0.00000E+00
    0.50000E+00    0.56250E+00    0.00000E+00
    0.56250E+00    0.56250E+00    0.00000E+00
    0.62500E+00    0.56250E+00    0.00000E+00
    0.68750E+00    0.56250E+00    0.00000E+00
    0.75000E+00    0.56250E+00    0.00000E+00
    0.81250E+00    0.56250E+00    0.00000E+00
    0.87500E+00    0.56250E+00    0.00000E+00
    0.93750E+00    0.56250E+00    0.00000E+00
    0.10000E+01    0.56250E+00    0.00000E+00
    0.00000E+00    0.50000E+00    0.00000E+00
    0.62500E-01    0.50000E+00    0.00000E+00
    0.12500E+00    0.50000E+00    0.00000E+00
    0.18750E+00    0.50000E+00    0.00000E+00
    0.25000E+00    0.50000E+00    0.00000E+00
    0.31250E+00    0.50000E+00    0.00000E+00
    0.37500E+00    0.50000E+00    0.00000E+00
    0.43750E+00    0.50000E+00    0.00000E+00
    0.50000E+00    0.50000E+00    0.00000E+00
    0.56250E+00    0.50000E+00    0.00000E+00
    0.62500E+00    0.50000E+00    0.00000E+00
    0.68750E+00    0.50000E+00    0.00000E+00
    0.75000E+00    0.50000E+00    0.00000E+00
    0.81250E+00    0.50000E+00    0.00000E+00
    0.87500E+00    0.50000E+00    0.00000E+00
    0.93750E+00    0.50000E+00    0.00000E+00
    0.10000E+01    0.50000E+00    0.00000E+00
    0.00000E+00    0.43750E+00    0.00000E+00
    0.62500E-01    0.43750E+00    0.00000E+00
    0.12500E+00    0.43750E+00    0.00000E+00
    0.18750E+00    0.43750E+00    0.00000E+00
    0.25000E+00    0.43750E+00    0.00000E+00
    0.31250E+00    0.43750E+00    0.00000E+00
    0.37500E+00    0.43750E+00    0.00000E+00
    0.43750E+00    0.43750E+00    0.00000E+00
    0.50000E+00    0.43750E+00    0.00000E+00
    0.56250E+00    0.43750E+00    0.00000E+00
    0.62500E+00    0.43750E+00    0.00000E+00
    0.68750E+00    0.43750E+00    0.00000E+00
    0.75000E+00    0.43750E+00    0.00000E+00
    0.81250E+00    0.43750E+00    0.00000E+00
    0.87500E+00    0.43750E+00    0.00000E+00
    0.93750E+00    0.43750E+00    0.00000E+00
    0.10000E+01    0.43750E+00    0.00000E+00
    0.00000E+00    0.37500E+00    0.00000E+00
    0.62500E-01    0.37500E+00    0.00000E+00
    0.12500E+00    0.37500E+00    0.00000E+00
    0.18750E+00    0.37500E+00    0.00000E+00
    0.25000E+00    0.37500E+00    0.00000E+00
    0.31250E+00    0.37500E+00    0.00000E+00
    0.37500E+00    0.37500E+00    0.00000E+00
    0.43750E+00    0.37500E+00    0.00000E+00
    0.50000E+00    0.37500E+00    0.00000E+00
    0.56250E+00    0.37500E+00    0.00000E+00
    0.62500E+00    0.37500E+00    0.00000E+00
    0.68750E+00    0.37500E+00    0.00000E+00
    0.75000E+00    0.37500E+00    0.00000E+00
    0.81250E+00    0.37500E+00    0.00000E+00
    0.87500E+00    0.37500E+00    0.00000E+00
    0.93750E+00    0.37500E+00    0.00000E+00
    0.10000E+01    0.37500E+00    0.00000E+00
    0.00000E+00    0.31250E+00    0.00000E+00
    0.62500E-01    0.31250E+00    0.00000E+00
    0.12500E+00    0.31250E+00    0.00000E+00
    0.18750E+00    0.31250E+00    0.00000E+00
    0.25000E+00    0.31250E+00    0.00000E+00
    0.31250E+00    0.31250E+00    0.00000E+00
    0.37500E+00    0.31250E+00    0.00000E+00
    0.43750E+00    0.31250E+00    0.00000E+00
    0.50000E+00    0.31250E+00    0.00000E+00
    0.56250E+00    0.31250E+00    0.00000E+00
    0.62500E+00    0.31250E+00    0.00000E+00
    0.68750E+00    0.31250E+00    0.00000E+00
    0.75000E+00    0.31250E+00    0.00000E+00
    0.81250E+00    0.31250E+00    0.00000E+00
    0.87500E+00    0.31250E+00    0.00000E+00
    0.93750E+00    0.31250E+00    0.00000E+00
    0.10000E+01    0.31250E+00    0.00000E+00
    0.00000E+00    0.25000E+00    0.00000E+00
    0.62500E-01    0.25000E+00    0.00000E+00
    0.12500E+00    0.25000E+00    0.00000E+00
    0.18750E+00    0.25000E+00    0.00000E+00
    0.25000E+00    0.25000E+00    0.00000E+00
    0.31250E+00    0.25000E+00    0.00000E+00
    0.37500E+00    0.25000E+00    0.00000E+00
    0.43750E+00    0.25000E+00    0.00000E+00
    0.50000E+00    0.25000E+00    0.00000E+00
[...]
POINT_DATA        289
VECTORS deslocamento double
   0.00000E+000   0.00000E+000   0.00000E+000
   0.29601E+000  -0.39312E+000   0.00000E+000
   0.48524E+000  -0.66249E+000   0.00000E+000
   0.62756E+000  -0.90165E+000   0.00000E+000
   0.74150E+000  -0.11258E+001   0.00000E+000
   0.83547E+000  -0.13402E+001   0.00000E+000
   0.91398E+000  -0.15472E+001   0.00000E+000
   0.97982E+000  -0.17480E+001   0.00000E+000
   0.10350E+001  -0.19429E+001   0.00000E+000
   0.10810E+001  -0.21319E+001   0.00000E+000
   0.11194E+001  -0.23146E+001   0.00000E+000
   0.11516E+001  -0.24910E+001   0.00000E+000
   0.11792E+001  -0.26607E+001   0.00000E+000
   0.12036E+001  -0.28242E+001   0.00000E+000
   0.12265E+001  -0.29820E+001   0.00000E+000
   0.12495E+001  -0.31356E+001   0.00000E+000
   0.12736E+001  -0.32873E+001   0.00000E+000
   0.00000E+000   0.00000E+000   0.00000E+000
   0.13667E+000  -0.27021E+000   0.00000E+000
   0.29840E+000  -0.55154E+000   0.00000E+000
   0.43453E+000  -0.80244E+000   0.00000E+000
   0.54851E+000  -0.10354E+001   0.00000E+000
   0.64466E+000  -0.12567E+001   0.00000E+000
   0.72619E+000  -0.14695E+001   0.00000E+000
   0.79553E+000  -0.16751E+001   0.00000E+000
   0.85455E+000  -0.18742E+001   0.00000E+000
   0.90482E+000  -0.20666E+001   0.00000E+000
   0.94772E+000  -0.22523E+001   0.00000E+000
   0.98453E+000  -0.24311E+001   0.00000E+000
   0.10165E+001  -0.26027E+001   0.00000E+000
   0.10449E+001  -0.27673E+001   0.00000E+000
   0.10709E+001  -0.29257E+001   0.00000E+000
   0.10957E+001  -0.30791E+001   0.00000E+000
   0.11205E+001  -0.32302E+001   0.00000E+000
   0.00000E+000   0.00000E+000   0.00000E+000
   0.85635E-001  -0.22106E+000   0.00000E+000
   0.19126E+000  -0.46849E+000   0.00000E+000
   0.30116E+000  -0.71532E+000   0.00000E+000
   0.40182E+000  -0.95084E+000   0.00000E+000
   0.49096E+000  -0.11763E+001   0.00000E+000
   0.56892E+000  -0.13933E+001   0.00000E+000
   0.63674E+000  -0.16030E+001   0.00000E+000
   0.69555E+000  -0.18057E+001   0.00000E+000
   0.74649E+000  -0.20014E+001   0.00000E+000
   0.79062E+000  -0.21899E+001   0.00000E+000
   0.82897E+000  -0.23710E+001   0.00000E+000
   0.86252E+000  -0.25445E+001   0.00000E+000
   0.89225E+000  -0.27105E+001   0.00000E+000
   0.91916E+000  -0.28695E+001   0.00000E+000
   0.94439E+000  -0.30226E+001   0.00000E+000
   0.96933E+000  -0.31719E+001   0.00000E+000
   0.00000E+000   0.00000E+000   0.00000E+000
   0.58520E-001  -0.19461E+000   0.00000E+000
   0.13054E+000  -0.41609E+000   0.00000E+000
   0.21119E+000  -0.64770E+000   0.00000E+000
   0.29253E+000  -0.87842E+000   0.00000E+000
   0.36905E+000  -0.11037E+001   0.00000E+000
   0.43870E+000  -0.13224E+001   0.00000E+000
   0.50101E+000  -0.15346E+001   0.00000E+000
   0.55619E+000  -0.17400E+001   0.00000E+000
   0.60479E+000  -0.19384E+001   0.00000E+000
   0.64747E+000  -0.21295E+001   0.00000E+000
   0.68492E+000  -0.23128E+001   0.00000E+000
   0.71789E+000  -0.24881E+001   0.00000E+000
   0.74713E+000  -0.26554E+001   0.00000E+000
   0.77351E+000  -0.28149E+001   0.00000E+000
   0.79811E+000  -0.29673E+001   0.00000E+000
   0.82244E+000  -0.31137E+001   0.00000E+000
   0.00000E+000   0.00000E+000   0.00000E+000
   0.40518E-001  -0.17802E+000   0.00000E+000
   0.90556E-001  -0.38085E+000   0.00000E+000
   0.14863E+000  -0.59769E+000   0.00000E+000
   0.21065E+000  -0.81976E+000   0.00000E+000
   0.27239E+000  -0.10413E+001   0.00000E+000
   0.33099E+000  -0.12594E+001   0.00000E+000
   0.38505E+000  -0.14724E+001   0.00000E+000
   0.43406E+000  -0.16794E+001   0.00000E+000
   0.47800E+000  -0.18797E+001   0.00000E+000
   0.51712E+000  -0.20727E+001   0.00000E+000
   0.55183E+000  -0.22579E+001   0.00000E+000
   0.58261E+000  -0.24349E+001   0.00000E+000
   0.61005E+000  -0.26033E+001   0.00000E+000
   0.63486E+000  -0.27631E+001   0.00000E+000
   0.65803E+000  -0.29143E+001   0.00000E+000
   0.68106E+000  -0.30573E+001   0.00000E+000
   0.00000E+000   0.00000E+000   0.00000E+000
   0.27007E-001  -0.16646E+000   0.00000E+000
   0.61094E-001  -0.35563E+000   0.00000E+000
   0.10187E+000  -0.56021E+000   0.00000E+000
   0.14721E+000  -0.77335E+000   0.00000E+000
   0.19434E+000  -0.98962E+000   0.00000E+000
   0.24085E+000  -0.12052E+001   0.00000E+000
   0.28513E+000  -0.14176E+001   0.00000E+000
   0.32627E+000  -0.16251E+001   0.00000E+000
   0.36389E+000  -0.18265E+001   0.00000E+000
   0.39793E+000  -0.20210E+001   0.00000E+000
   0.42854E+000  -0.22076E+001   0.00000E+000
   0.45598E+000  -0.23858E+001   0.00000E+000
   0.48067E+000  -0.25551E+001   0.00000E+000
   0.50318E+000  -0.27149E+001   0.00000E+000
   0.52434E+000  -0.28649E+001   0.00000E+000
   0.54544E+000  -0.30043E+001   0.00000E+000
   0.00000E+000   0.00000E+000   0.00000E+000
   0.15967E-001  -0.15775E+000   0.00000E+000
   0.37439E-001  -0.33667E+000   0.00000E+000
   0.64323E-001  -0.53153E+000   0.00000E+000
   0.95448E-001  -0.73682E+000   0.00000E+000
   0.12910E+000  -0.94764E+000   0.00000E+000
   0.16355E+000  -0.11600E+001   0.00000E+000
   0.19739E+000  -0.13708E+001   0.00000E+000
   0.22970E+000  -0.15780E+001   0.00000E+000
   0.25993E+000  -0.17798E+001   0.00000E+000
   0.28784E+000  -0.19751E+001   0.00000E+000
   0.31339E+000  -0.21626E+001   0.00000E+000
   0.33669E+000  -0.23417E+001   0.00000E+000
   0.35799E+000  -0.25116E+001   0.00000E+000
   0.37767E+000  -0.26713E+001   0.00000E+000
   0.39636E+000  -0.28201E+001   0.00000E+000
   0.41504E+000  -0.29563E+001   0.00000E+000
   0.00000E+000   0.00000E+000   0.00000E+000
   0.62974E-002  -0.15078E+000   0.00000E+000
   0.17007E-001  -0.32191E+000   0.00000E+000
   0.32032E-001  -0.50927E+000   0.00000E+000
   0.50701E-001  -0.70821E+000   0.00000E+000
   0.71991E-001  -0.91419E+000   0.00000E+000
   0.94784E-001  -0.11233E+001   0.00000E+000
   0.11808E+000  -0.13322E+001   0.00000E+000
   0.14110E+000  -0.15385E+001   0.00000E+000
   0.16332E+000  -0.17401E+001   0.00000E+000
   0.18444E+000  -0.19355E+001   0.00000E+000
   0.20432E+000  -0.21236E+001   0.00000E+000
   0.22295E+000  -0.23032E+001   0.00000E+000
   0.24042E+000  -0.24733E+001   0.00000E+000
   0.25693E+000  -0.26329E+001   0.00000E+000
   0.27284E+000  -0.27807E+001   0.00000E+000
   0.28873E+000  -0.29146E+001   0.00000E+000
   0.00000E+000   0.00000E+000   0.00000E+000
  -0.27268E-002  -0.14497E+000   0.00000E+000
  -0.18767E-002  -0.31020E+000   0.00000E+000
   0.23467E-002  -0.49204E+000   0.00000E+000
   0.95654E-002  -0.68617E+000   0.00000E+000
   0.19255E-001  -0.88829E+000   0.00000E+000
   0.30811E-001  -0.10945E+001   0.00000E+000
   0.43636E-001  -0.13015E+001   0.00000E+000
   0.57210E-001  -0.15065E+001   0.00000E+000
   0.71128E-001  -0.17075E+001   0.00000E+000
   0.85107E-001  -0.19027E+001   0.00000E+000
   0.98968E-001  -0.20907E+001   0.00000E+000
   0.11261E+000  -0.22704E+001   0.00000E+000
   0.12600E+000  -0.24406E+001   0.00000E+000
   0.13914E+000  -0.26001E+001   0.00000E+000
   0.15209E+000  -0.27473E+001   0.00000E+000
   0.16498E+000  -0.28800E+001   0.00000E+000
   0.00000E+000   0.00000E+000   0.00000E+000
  -0.11679E-001  -0.14006E+000   0.00000E+000
  -0.20516E-001  -0.30102E+000   0.00000E+000
  -0.26819E-001  -0.47912E+000   0.00000E+000
  -0.30717E-001  -0.66998E+000   0.00000E+000
  -0.32314E-001  -0.86929E+000   0.00000E+000
  -0.31770E-001  -0.10732E+001   0.00000E+000
  -0.29307E-001  -0.12784E+001   0.00000E+000
  -0.25182E-001  -0.14821E+001   0.00000E+000
  -0.19648E-001  -0.16821E+001   0.00000E+000
  -0.12932E-001  -0.18767E+001   0.00000E+000
  -0.52251E-002  -0.20642E+001   0.00000E+000
   0.33099E-002  -0.22436E+001   0.00000E+000
   0.12516E-001  -0.24136E+001   0.00000E+000
   0.22212E-001  -0.25730E+001   0.00000E+000
   0.32157E-001  -0.27202E+001   0.00000E+000
   0.42018E-001  -0.28530E+001   0.00000E+000
   0.00000E+000   0.00000E+000   0.00000E+000
  -0.21121E-001  -0.13602E+000   0.00000E+000
  -0.40161E-001  -0.29432E+000   0.00000E+000
  -0.57429E-001  -0.47040E+000   0.00000E+000
  -0.72734E-001  -0.65942E+000   0.00000E+000
  -0.85753E-001  -0.85696E+000   0.00000E+000
  -0.96234E-001  -0.10592E+001   0.00000E+000
  -0.10408E+000  -0.12628E+001   0.00000E+000
  -0.10931E+000  -0.14651E+001   0.00000E+000
  -0.11207E+000  -0.16639E+001   0.00000E+000
  -0.11253E+000  -0.18574E+001   0.00000E+000
  -0.11091E+000  -0.20441E+001   0.00000E+000
  -0.10742E+000  -0.22228E+001   0.00000E+000
  -0.10234E+000  -0.23924E+001   0.00000E+000
  -0.96026E-001  -0.25517E+001   0.00000E+000
  -0.88995E-001  -0.26993E+001   0.00000E+000
  -0.82039E-001  -0.28333E+001   0.00000E+000
   0.00000E+000   0.00000E+000   0.00000E+000
  -0.31728E-001  -0.13309E+000   0.00000E+000
  -0.62273E-001  -0.29054E+000   0.00000E+000
  -0.91700E-001  -0.46628E+000   0.00000E+000
  -0.11931E+000  -0.65476E+000   0.00000E+000
  -0.14428E+000  -0.85138E+000   0.00000E+000
  -0.16599E+000  -0.10523E+001   0.00000E+000
  -0.18410E+000  -0.12545E+001   0.00000E+000
  -0.19849E+000  -0.14553E+001   0.00000E+000
  -0.20925E+000  -0.16526E+001   0.00000E+000
  -0.21657E+000  -0.18447E+001   0.00000E+000
  -0.22072E+000  -0.20301E+001   0.00000E+000
  -0.22202E+000  -0.22078E+001   0.00000E+000
  -0.22084E+000  -0.23766E+001   0.00000E+000
  -0.21769E+000  -0.25358E+001   0.00000E+000
  -0.21335E+000  -0.26843E+001   0.00000E+000
  -0.20899E+000  -0.28206E+001   0.00000E+000
   0.00000E+000   0.00000E+000   0.00000E+000
  -0.44474E-001  -0.13193E+000   0.00000E+000
  -0.88883E-001  -0.29072E+000   0.00000E+000
  -0.13253E+000  -0.46777E+000   0.00000E+000
  -0.17390E+000  -0.65674E+000   0.00000E+000
  -0.21165E+000  -0.85293E+000   0.00000E+000
  -0.24486E+000  -0.10528E+001   0.00000E+000
  -0.27307E+000  -0.12534E+001   0.00000E+000
  -0.29619E+000  -0.14524E+001   0.00000E+000
  -0.31436E+000  -0.16479E+001   0.00000E+000
  -0.32791E+000  -0.18382E+001   0.00000E+000
  -0.33722E+000  -0.20220E+001   0.00000E+000
  -0.34274E+000  -0.21982E+001   0.00000E+000
  -0.34500E+000  -0.23661E+001   0.00000E+000
  -0.34465E+000  -0.25250E+001   0.00000E+000
  -0.34262E+000  -0.26745E+001   0.00000E+000
  -0.34039E+000  -0.28139E+001   0.00000E+000
   0.00000E+000   0.00000E+000   0.00000E+000
  -0.61010E-001  -0.13400E+000   0.00000E+000
  -0.12320E+000  -0.29680E+000   0.00000E+000
  -0.18412E+000  -0.47655E+000   0.00000E+000
  -0.24117E+000  -0.66644E+000   0.00000E+000
  -0.29255E+000  -0.86214E+000   0.00000E+000
  -0.33730E+000  -0.10605E+001   0.00000E+000
  -0.37511E+000  -0.12591E+001   0.00000E+000
  -0.40610E+000  -0.14559E+001   0.00000E+000
  -0.43066E+000  -0.16491E+001   0.00000E+000
  -0.44933E+000  -0.18372E+001   0.00000E+000
  -0.46273E+000  -0.20190E+001   0.00000E+000
  -0.47155E+000  -0.21935E+001   0.00000E+000
  -0.47647E+000  -0.23601E+001   0.00000E+000
  -0.47828E+000  -0.25185E+001   0.00000E+000
  -0.47803E+000  -0.26689E+001   0.00000E+000
  -0.47731E+000  -0.28117E+001   0.00000E+000
   0.00000E+000   0.00000E+000   0.00000E+000
  -0.84575E-001  -0.14235E+000   0.00000E+000
  -0.17083E+000  -0.31199E+000   0.00000E+000
  -0.25306E+000  -0.49486E+000   0.00000E+000
  -0.32767E+000  -0.68508E+000   0.00000E+000
  -0.39302E+000  -0.87934E+000   0.00000E+000
  -0.44867E+000  -0.10753E+001   0.00000E+000
  -0.49485E+000  -0.12711E+001   0.00000E+000
  -0.53217E+000  -0.14649E+001   0.00000E+000
  -0.56142E+000  -0.16552E+001   0.00000E+000
  -0.58349E+000  -0.18407E+001   0.00000E+000
  -0.59935E+000  -0.20202E+001   0.00000E+000
  -0.60994E+000  -0.21927E+001   0.00000E+000
  -0.61624E+000  -0.23578E+001   0.00000E+000
  -0.61924E+000  -0.25155E+001   0.00000E+000
  -0.62002E+000  -0.26664E+001   0.00000E+000
  -0.62007E+000  -0.28122E+001   0.00000E+000
   0.00000E+000   0.00000E+000   0.00000E+000
  -0.12272E+000  -0.16335E+000   0.00000E+000
  -0.24265E+000  -0.34100E+000   0.00000E+000
  -0.35008E+000  -0.52512E+000   0.00000E+000
  -0.44268E+000  -0.71335E+000   0.00000E+000
  -0.52069E+000  -0.90418E+000   0.00000E+000
  -0.58515E+000  -0.10962E+001   0.00000E+000
  -0.63730E+000  -0.12879E+001   0.00000E+000
  -0.67845E+000  -0.14779E+001   0.00000E+000
  -0.70988E+000  -0.16648E+001   0.00000E+000
  -0.73289E+000  -0.18472E+001   0.00000E+000
  -0.74879E+000  -0.20241E+001   0.00000E+000
  -0.75890E+000  -0.21945E+001   0.00000E+000
  -0.76456E+000  -0.23580E+001   0.00000E+000
  -0.76710E+000  -0.25147E+001   0.00000E+000
  -0.76780E+000  -0.26658E+001   0.00000E+000
  -0.76787E+000  -0.28136E+001   0.00000E+000
   0.00000E+000   0.00000E+000   0.00000E+000
  -0.19849E+000  -0.20955E+000   0.00000E+000
  -0.36228E+000  -0.38850E+000   0.00000E+000
  -0.49300E+000  -0.56786E+000   0.00000E+000
  -0.59867E+000  -0.75005E+000   0.00000E+000
  -0.68434E+000  -0.93477E+000   0.00000E+000
  -0.75316E+000  -0.11210E+001   0.00000E+000
  -0.80738E+000  -0.13075E+001   0.00000E+000
  -0.84882E+000  -0.14928E+001   0.00000E+000
  -0.87909E+000  -0.16756E+001   0.00000E+000
  -0.89977E+000  -0.18545E+001   0.00000E+000
  -0.91248E+000  -0.20285E+001   0.00000E+000
  -0.91892E+000  -0.21967E+001   0.00000E+000
  -0.92087E+000  -0.23587E+001   0.00000E+000
  -0.92023E+000  -0.25147E+001   0.00000E+000
  -0.91884E+000  -0.26657E+001   0.00000E+000
  -0.91813E+000  -0.28143E+001   0.00000E+000
